<?xml version="1.0" encoding="UTF-8"?>

<!-- generated on 2025-07-19 15:43:49 by Eclipse SUMO sumo Version 1.23.1
<sumoConfiguration xmlns:xsi="http://www.w3.org/2001/XMLSchema-instance" xsi:noNamespaceSchemaLocation="http://sumo.dlr.de/xsd/sumoConfiguration.xsd">

    <input>
        <net-file value="simulations/../networks/intersection.net.xml"/>
        <route-files value="simulations/../routes/vehicles.rou.xml"/>
        <additional-files value="simulations/../config/traffic_lights_optimized.tll.xml"/>
    </input>

    <output>
        <tripinfo-output value="simulations/../output/tripinfo_optimized.xml"/>
    </output>

    <time>
        <begin value="0"/>
        <end value="3600"/>
    </time>

</sumoConfiguration>
-->

<tripinfos xmlns:xsi="http://www.w3.org/2001/XMLSchema-instance" xsi:noNamespaceSchemaLocation="http://sumo.dlr.de/xsd/tripinfo_file.xsd">
    <tripinfo id="flow_we.0" depart="0.00" departLane="west_to_center_0" departPos="5.10" departSpeed="0.00" departDelay="0.00" arrival="10.00" arrivalLane="center_to_east_0" arrivalPos="50.00" arrivalSpeed="14.08" duration="10.00" routeLength="94.90" waitingTime="0.00" waitingCount="0" stopTime="0.00" timeLoss="2.91" rerouteNo="0" devices="tripinfo_flow_we.0" vType="car" speedFactor="1.06" vaporized=""/>
    <tripinfo id="flow_ns.0" depart="0.00" departLane="north_to_center_0" departPos="5.10" departSpeed="0.00" departDelay="0.00" arrival="10.00" arrivalLane="center_to_south_0" arrivalPos="50.00" arrivalSpeed="13.52" duration="10.00" routeLength="94.90" waitingTime="0.00" waitingCount="0" stopTime="0.00" timeLoss="3.09" rerouteNo="0" devices="tripinfo_flow_ns.0" vType="car" speedFactor="1.01" vaporized=""/>
    <tripinfo id="flow_we.1" depart="12.00" departLane="west_to_center_0" departPos="5.10" departSpeed="0.00" departDelay="0.00" arrival="22.00" arrivalLane="center_to_east_0" arrivalPos="50.00" arrivalSpeed="13.34" duration="10.00" routeLength="94.90" waitingTime="0.00" waitingCount="0" stopTime="0.00" timeLoss="3.12" rerouteNo="0" devices="tripinfo_flow_we.1" vType="car" speedFactor="1.03" vaporized=""/>
    <tripinfo id="flow_ns.1" depart="12.00" departLane="north_to_center_0" departPos="5.10" departSpeed="0.00" departDelay="0.00" arrival="23.00" arrivalLane="center_to_south_0" arrivalPos="50.00" arrivalSpeed="13.67" duration="11.00" routeLength="94.90" waitingTime="0.00" waitingCount="0" stopTime="0.00" timeLoss="3.83" rerouteNo="0" devices="tripinfo_flow_ns.1" vType="car" speedFactor="1.05" vaporized=""/>
    <tripinfo id="flow_ns.2" depart="24.00" departLane="north_to_center_0" departPos="5.10" departSpeed="0.00" departDelay="0.00" arrival="34.00" arrivalLane="center_to_south_0" arrivalPos="50.00" arrivalSpeed="14.52" duration="10.00" routeLength="94.90" waitingTime="0.00" waitingCount="0" stopTime="0.00" timeLoss="3.30" rerouteNo="0" devices="tripinfo_flow_ns.2" vType="car" speedFactor="1.09" vaporized=""/>
    <tripinfo id="flow_we.2" depart="24.00" departLane="west_to_center_0" departPos="5.10" departSpeed="0.00" departDelay="0.00" arrival="35.00" arrivalLane="center_to_east_0" arrivalPos="50.00" arrivalSpeed="13.02" duration="11.00" routeLength="94.90" waitingTime="0.00" waitingCount="0" stopTime="0.00" timeLoss="2.95" rerouteNo="0" devices="tripinfo_flow_we.2" vType="car" speedFactor="0.94" vaporized=""/>
    <tripinfo id="flow_ew.0" depart="0.00" departLane="east_to_center_0" departPos="5.10" departSpeed="0.00" departDelay="0.00" arrival="49.00" arrivalLane="center_to_west_0" arrivalPos="50.00" arrivalSpeed="11.87" duration="49.00" routeLength="94.90" waitingTime="32.00" waitingCount="1" stopTime="0.00" timeLoss="41.57" rerouteNo="0" devices="tripinfo_flow_ew.0" vType="car" speedFactor="0.94" vaporized=""/>
    <tripinfo id="flow_sn.0" depart="0.00" departLane="south_to_center_0" departPos="5.10" departSpeed="0.00" departDelay="0.00" arrival="49.00" arrivalLane="center_to_north_0" arrivalPos="50.00" arrivalSpeed="13.45" duration="49.00" routeLength="94.90" waitingTime="33.00" waitingCount="1" stopTime="0.00" timeLoss="42.53" rerouteNo="0" devices="tripinfo_flow_sn.0" vType="car" speedFactor="1.08" vaporized=""/>
    <tripinfo id="flow_ew.1" depart="12.00" departLane="east_to_center_0" departPos="5.10" departSpeed="0.00" departDelay="0.00" arrival="52.00" arrivalLane="center_to_west_0" arrivalPos="50.00" arrivalSpeed="11.10" duration="40.00" routeLength="94.90" waitingTime="22.00" waitingCount="1" stopTime="0.00" timeLoss="31.27" rerouteNo="0" devices="tripinfo_flow_ew.1" vType="car" speedFactor="0.83" vaporized=""/>
    <tripinfo id="flow_sn.1" depart="12.00" departLane="south_to_center_0" departPos="5.10" departSpeed="0.00" departDelay="0.00" arrival="52.00" arrivalLane="center_to_north_0" arrivalPos="50.00" arrivalSpeed="11.93" duration="40.00" routeLength="94.90" waitingTime="23.00" waitingCount="1" stopTime="0.00" timeLoss="32.03" rerouteNo="0" devices="tripinfo_flow_sn.1" vType="car" speedFactor="0.89" vaporized=""/>
    <tripinfo id="flow_ew.2" depart="24.00" departLane="east_to_center_0" departPos="5.10" departSpeed="0.00" departDelay="0.00" arrival="54.00" arrivalLane="center_to_west_0" arrivalPos="50.00" arrivalSpeed="11.07" duration="30.00" routeLength="94.90" waitingTime="13.00" waitingCount="1" stopTime="0.00" timeLoss="21.29" rerouteNo="0" devices="tripinfo_flow_ew.2" vType="car" speedFactor="0.86" vaporized=""/>
    <tripinfo id="flow_sn.2" depart="24.00" departLane="south_to_center_0" departPos="5.10" departSpeed="0.00" departDelay="0.00" arrival="54.00" arrivalLane="center_to_north_0" arrivalPos="50.00" arrivalSpeed="13.80" duration="30.00" routeLength="94.90" waitingTime="13.00" waitingCount="1" stopTime="0.00" timeLoss="23.11" rerouteNo="0" devices="tripinfo_flow_sn.2" vType="car" speedFactor="1.03" vaporized=""/>
    <tripinfo id="flow_ew.3" depart="36.00" departLane="east_to_center_0" departPos="5.10" departSpeed="0.00" departDelay="0.00" arrival="55.00" arrivalLane="center_to_west_0" arrivalPos="50.00" arrivalSpeed="13.75" duration="19.00" routeLength="94.90" waitingTime="3.00" waitingCount="1" stopTime="0.00" timeLoss="12.79" rerouteNo="0" devices="tripinfo_flow_ew.3" vType="car" speedFactor="1.12" vaporized=""/>
    <tripinfo id="flow_sn.3" depart="36.00" departLane="south_to_center_0" departPos="5.10" departSpeed="0.00" departDelay="0.00" arrival="56.00" arrivalLane="center_to_north_0" arrivalPos="50.00" arrivalSpeed="12.19" duration="20.00" routeLength="94.90" waitingTime="3.00" waitingCount="1" stopTime="0.00" timeLoss="12.50" rerouteNo="0" devices="tripinfo_flow_sn.3" vType="car" speedFactor="0.93" vaporized=""/>
    <tripinfo id="flow_ew.4" depart="48.00" departLane="east_to_center_0" departPos="5.10" departSpeed="0.00" departDelay="0.00" arrival="59.00" arrivalLane="center_to_west_0" arrivalPos="50.00" arrivalSpeed="12.52" duration="11.00" routeLength="94.90" waitingTime="0.00" waitingCount="0" stopTime="0.00" timeLoss="2.85" rerouteNo="0" devices="tripinfo_flow_ew.4" vType="car" speedFactor="0.94" vaporized=""/>
    <tripinfo id="flow_sn.4" depart="48.00" departLane="south_to_center_0" departPos="5.10" departSpeed="0.00" departDelay="0.00" arrival="60.00" arrivalLane="center_to_north_0" arrivalPos="50.00" arrivalSpeed="14.85" duration="12.00" routeLength="94.90" waitingTime="0.00" waitingCount="0" stopTime="0.00" timeLoss="5.84" rerouteNo="0" devices="tripinfo_flow_sn.4" vType="car" speedFactor="1.16" vaporized=""/>
    <tripinfo id="flow_we.3" depart="36.00" departLane="west_to_center_0" departPos="5.10" departSpeed="0.00" departDelay="0.00" arrival="73.00" arrivalLane="center_to_east_0" arrivalPos="50.00" arrivalSpeed="13.66" duration="37.00" routeLength="94.90" waitingTime="20.00" waitingCount="1" stopTime="0.00" timeLoss="29.66" rerouteNo="0" devices="tripinfo_flow_we.3" vType="car" speedFactor="1.05" vaporized=""/>
    <tripinfo id="flow_ns.3" depart="36.00" departLane="north_to_center_0" departPos="5.10" departSpeed="0.00" departDelay="0.00" arrival="73.00" arrivalLane="center_to_south_0" arrivalPos="50.00" arrivalSpeed="13.65" duration="37.00" routeLength="94.90" waitingTime="20.00" waitingCount="1" stopTime="0.00" timeLoss="29.33" rerouteNo="0" devices="tripinfo_flow_ns.3" vType="car" speedFactor="0.99" vaporized=""/>
    <tripinfo id="flow_we.4" depart="49.00" departLane="west_to_center_0" departPos="5.10" departSpeed="0.00" departDelay="1.00" arrival="75.00" arrivalLane="center_to_east_0" arrivalPos="50.00" arrivalSpeed="10.98" duration="26.00" routeLength="94.90" waitingTime="9.00" waitingCount="1" stopTime="0.00" timeLoss="17.45" rerouteNo="0" devices="tripinfo_flow_we.4" vType="car" speedFactor="0.88" vaporized=""/>
    <tripinfo id="flow_ns.4" depart="49.00" departLane="north_to_center_0" departPos="5.10" departSpeed="0.00" departDelay="1.00" arrival="75.00" arrivalLane="center_to_south_0" arrivalPos="50.00" arrivalSpeed="12.07" duration="26.00" routeLength="94.90" waitingTime="9.00" waitingCount="1" stopTime="0.00" timeLoss="17.89" rerouteNo="0" devices="tripinfo_flow_ns.4" vType="car" speedFactor="0.94" vaporized=""/>
    <tripinfo id="flow_ns.5" depart="60.00" departLane="north_to_center_0" departPos="5.10" departSpeed="0.00" departDelay="0.00" arrival="76.00" arrivalLane="center_to_south_0" arrivalPos="50.00" arrivalSpeed="12.97" duration="16.00" routeLength="94.90" waitingTime="0.00" waitingCount="0" stopTime="0.00" timeLoss="8.79" rerouteNo="0" devices="tripinfo_flow_ns.5" vType="car" speedFactor="0.97" vaporized=""/>
    <tripinfo id="flow_we.5" depart="60.00" departLane="west_to_center_0" departPos="5.10" departSpeed="0.00" departDelay="0.00" arrival="77.00" arrivalLane="center_to_east_0" arrivalPos="50.00" arrivalSpeed="13.63" duration="17.00" routeLength="94.90" waitingTime="0.00" waitingCount="0" stopTime="0.00" timeLoss="9.40" rerouteNo="0" devices="tripinfo_flow_we.5" vType="car" speedFactor="1.02" vaporized=""/>
    <tripinfo id="flow_ns.6" depart="72.00" departLane="north_to_center_0" departPos="5.10" departSpeed="0.00" departDelay="0.00" arrival="83.00" arrivalLane="center_to_south_0" arrivalPos="50.00" arrivalSpeed="11.51" duration="11.00" routeLength="94.90" waitingTime="0.00" waitingCount="0" stopTime="0.00" timeLoss="2.67" rerouteNo="0" devices="tripinfo_flow_ns.6" vType="car" speedFactor="0.92" vaporized=""/>
    <tripinfo id="flow_we.6" depart="72.00" departLane="west_to_center_0" departPos="5.10" departSpeed="0.00" departDelay="0.00" arrival="84.00" arrivalLane="center_to_east_0" arrivalPos="50.00" arrivalSpeed="10.48" duration="12.00" routeLength="94.90" waitingTime="0.00" waitingCount="0" stopTime="0.00" timeLoss="2.88" rerouteNo="0" devices="tripinfo_flow_we.6" vType="car" speedFactor="0.83" vaporized=""/>
    <tripinfo id="flow_we.7" depart="84.00" departLane="west_to_center_0" departPos="5.10" departSpeed="0.00" departDelay="0.00" arrival="94.00" arrivalLane="center_to_east_0" arrivalPos="50.00" arrivalSpeed="15.68" duration="10.00" routeLength="94.90" waitingTime="0.00" waitingCount="0" stopTime="0.00" timeLoss="3.58" rerouteNo="0" devices="tripinfo_flow_we.7" vType="car" speedFactor="1.13" vaporized=""/>
    <tripinfo id="flow_ns.7" depart="84.00" departLane="north_to_center_0" departPos="5.10" departSpeed="0.00" departDelay="0.00" arrival="94.00" arrivalLane="center_to_south_0" arrivalPos="50.00" arrivalSpeed="16.28" duration="10.00" routeLength="94.90" waitingTime="0.00" waitingCount="0" stopTime="0.00" timeLoss="3.68" rerouteNo="0" devices="tripinfo_flow_ns.7" vType="car" speedFactor="1.18" vaporized=""/>
    <tripinfo id="flow_we.8" depart="96.00" departLane="west_to_center_0" departPos="5.10" departSpeed="0.00" departDelay="0.00" arrival="107.00" arrivalLane="center_to_east_0" arrivalPos="50.00" arrivalSpeed="13.80" duration="11.00" routeLength="94.90" waitingTime="0.00" waitingCount="0" stopTime="0.00" timeLoss="3.43" rerouteNo="0" devices="tripinfo_flow_we.8" vType="car" speedFactor="1.01" vaporized=""/>
    <tripinfo id="flow_ns.8" depart="96.00" departLane="north_to_center_0" departPos="5.10" departSpeed="0.00" departDelay="0.00" arrival="107.00" arrivalLane="center_to_south_0" arrivalPos="50.00" arrivalSpeed="13.33" duration="11.00" routeLength="94.90" waitingTime="0.00" waitingCount="0" stopTime="0.00" timeLoss="3.75" rerouteNo="0" devices="tripinfo_flow_ns.8" vType="car" speedFactor="0.99" vaporized=""/>
    <tripinfo id="flow_ew.5" depart="60.00" departLane="east_to_center_0" departPos="5.10" departSpeed="0.00" departDelay="0.00" arrival="115.00" arrivalLane="center_to_west_0" arrivalPos="50.00" arrivalSpeed="13.43" duration="55.00" routeLength="94.90" waitingTime="38.00" waitingCount="1" stopTime="0.00" timeLoss="47.96" rerouteNo="0" devices="tripinfo_flow_ew.5" vType="car" speedFactor="1.01" vaporized=""/>
    <tripinfo id="flow_sn.5" depart="60.00" departLane="south_to_center_0" departPos="5.10" departSpeed="0.00" departDelay="0.00" arrival="115.00" arrivalLane="center_to_north_0" arrivalPos="50.00" arrivalSpeed="11.31" duration="55.00" routeLength="94.90" waitingTime="40.00" waitingCount="1" stopTime="0.00" timeLoss="47.09" rerouteNo="0" devices="tripinfo_flow_sn.5" vType="car" speedFactor="0.89" vaporized=""/>
    <tripinfo id="flow_ew.6" depart="77.00" departLane="east_to_center_0" departPos="5.10" departSpeed="0.00" departDelay="5.00" arrival="117.00" arrivalLane="center_to_west_0" arrivalPos="50.00" arrivalSpeed="11.95" duration="40.00" routeLength="94.90" waitingTime="25.00" waitingCount="1" stopTime="0.00" timeLoss="31.82" rerouteNo="0" devices="tripinfo_flow_ew.6" vType="car" speedFactor="0.87" vaporized=""/>
    <tripinfo id="flow_sn.6" depart="76.00" departLane="south_to_center_0" departPos="5.10" departSpeed="0.00" departDelay="4.00" arrival="117.00" arrivalLane="center_to_north_0" arrivalPos="50.00" arrivalSpeed="12.52" duration="41.00" routeLength="94.90" waitingTime="26.00" waitingCount="1" stopTime="0.00" timeLoss="33.28" rerouteNo="0" devices="tripinfo_flow_sn.6" vType="car" speedFactor="0.95" vaporized=""/>
    <tripinfo id="flow_ew.7" depart="84.00" departLane="east_to_center_0" departPos="5.10" departSpeed="0.00" departDelay="0.00" arrival="119.00" arrivalLane="center_to_west_0" arrivalPos="50.00" arrivalSpeed="12.25" duration="35.00" routeLength="94.90" waitingTime="19.00" waitingCount="1" stopTime="0.00" timeLoss="27.20" rerouteNo="0" devices="tripinfo_flow_ew.7" vType="car" speedFactor="0.93" vaporized=""/>
    <tripinfo id="flow_sn.7" depart="84.00" departLane="south_to_center_0" departPos="5.10" departSpeed="0.00" departDelay="0.00" arrival="119.00" arrivalLane="center_to_north_0" arrivalPos="50.00" arrivalSpeed="14.93" duration="35.00" routeLength="94.90" waitingTime="19.00" waitingCount="1" stopTime="0.00" timeLoss="28.71" rerouteNo="0" devices="tripinfo_flow_sn.7" vType="car" speedFactor="1.15" vaporized=""/>
    <tripinfo id="flow_ew.8" depart="96.00" departLane="east_to_center_0" departPos="5.10" departSpeed="0.00" departDelay="0.00" arrival="121.00" arrivalLane="center_to_west_0" arrivalPos="50.00" arrivalSpeed="14.31" duration="25.00" routeLength="94.90" waitingTime="9.00" waitingCount="1" stopTime="0.00" timeLoss="18.51" rerouteNo="0" devices="tripinfo_flow_ew.8" vType="car" speedFactor="1.17" vaporized=""/>
    <tripinfo id="flow_sn.8" depart="96.00" departLane="south_to_center_0" departPos="5.10" departSpeed="0.00" departDelay="0.00" arrival="121.00" arrivalLane="center_to_north_0" arrivalPos="50.00" arrivalSpeed="13.25" duration="25.00" routeLength="94.90" waitingTime="8.00" waitingCount="1" stopTime="0.00" timeLoss="17.94" rerouteNo="0" devices="tripinfo_flow_sn.8" vType="car" speedFactor="1.02" vaporized=""/>
    <tripinfo id="flow_ew.9" depart="108.00" departLane="east_to_center_0" departPos="5.10" departSpeed="0.00" departDelay="0.00" arrival="122.00" arrivalLane="center_to_west_0" arrivalPos="50.00" arrivalSpeed="16.04" duration="14.00" routeLength="94.90" waitingTime="0.00" waitingCount="0" stopTime="0.00" timeLoss="8.03" rerouteNo="0" devices="tripinfo_flow_ew.9" vType="car" speedFactor="1.18" vaporized=""/>
    <tripinfo id="flow_sn.9" depart="108.00" departLane="south_to_center_0" departPos="5.10" departSpeed="0.00" departDelay="0.00" arrival="125.00" arrivalLane="center_to_north_0" arrivalPos="50.00" arrivalSpeed="11.54" duration="17.00" routeLength="94.90" waitingTime="0.00" waitingCount="0" stopTime="0.00" timeLoss="8.65" rerouteNo="0" devices="tripinfo_flow_sn.9" vType="car" speedFactor="0.90" vaporized=""/>
    <tripinfo id="flow_ew.10" depart="120.00" departLane="east_to_center_0" departPos="5.10" departSpeed="0.00" departDelay="0.00" arrival="131.00" arrivalLane="center_to_west_0" arrivalPos="50.00" arrivalSpeed="12.33" duration="11.00" routeLength="94.90" waitingTime="0.00" waitingCount="0" stopTime="0.00" timeLoss="3.44" rerouteNo="0" devices="tripinfo_flow_ew.10" vType="car" speedFactor="0.96" vaporized=""/>
    <tripinfo id="flow_sn.10" depart="120.00" departLane="south_to_center_0" departPos="5.10" departSpeed="0.00" departDelay="0.00" arrival="132.00" arrivalLane="center_to_north_0" arrivalPos="50.00" arrivalSpeed="13.99" duration="12.00" routeLength="94.90" waitingTime="0.00" waitingCount="0" stopTime="0.00" timeLoss="5.08" rerouteNo="0" devices="tripinfo_flow_sn.10" vType="car" speedFactor="1.04" vaporized=""/>
    <tripinfo id="flow_we.9" depart="108.00" departLane="west_to_center_0" departPos="5.10" departSpeed="0.00" departDelay="0.00" arrival="138.00" arrivalLane="center_to_east_0" arrivalPos="50.00" arrivalSpeed="12.46" duration="30.00" routeLength="94.90" waitingTime="15.00" waitingCount="1" stopTime="0.00" timeLoss="22.58" rerouteNo="0" devices="tripinfo_flow_we.9" vType="car" speedFactor="0.97" vaporized=""/>
    <tripinfo id="flow_ns.9" depart="108.00" departLane="north_to_center_0" departPos="5.10" departSpeed="0.00" departDelay="0.00" arrival="138.00" arrivalLane="center_to_south_0" arrivalPos="50.00" arrivalSpeed="14.32" duration="30.00" routeLength="94.90" waitingTime="14.00" waitingCount="1" stopTime="0.00" timeLoss="23.53" rerouteNo="0" devices="tripinfo_flow_ns.9" vType="car" speedFactor="1.10" vaporized=""/>
    <tripinfo id="flow_we.10" depart="122.00" departLane="west_to_center_0" departPos="5.10" departSpeed="0.00" departDelay="2.00" arrival="140.00" arrivalLane="center_to_east_0" arrivalPos="50.00" arrivalSpeed="13.38" duration="18.00" routeLength="94.90" waitingTime="1.00" waitingCount="1" stopTime="0.00" timeLoss="11.00" rerouteNo="0" devices="tripinfo_flow_we.10" vType="car" speedFactor="1.03" vaporized=""/>
    <tripinfo id="flow_ns.10" depart="121.00" departLane="north_to_center_0" departPos="5.10" departSpeed="0.00" departDelay="1.00" arrival="140.00" arrivalLane="center_to_south_0" arrivalPos="50.00" arrivalSpeed="14.05" duration="19.00" routeLength="94.90" waitingTime="3.00" waitingCount="1" stopTime="0.00" timeLoss="12.50" rerouteNo="0" devices="tripinfo_flow_ns.10" vType="car" speedFactor="1.09" vaporized=""/>
    <tripinfo id="flow_ns.11" depart="132.00" departLane="north_to_center_0" departPos="5.10" departSpeed="0.00" departDelay="0.00" arrival="142.00" arrivalLane="center_to_south_0" arrivalPos="50.00" arrivalSpeed="13.82" duration="10.00" routeLength="94.90" waitingTime="0.00" waitingCount="0" stopTime="0.00" timeLoss="2.89" rerouteNo="0" devices="tripinfo_flow_ns.11" vType="car" speedFactor="1.00" vaporized=""/>
    <tripinfo id="flow_we.11" depart="132.00" departLane="west_to_center_0" departPos="5.10" departSpeed="0.00" departDelay="0.00" arrival="143.00" arrivalLane="center_to_east_0" arrivalPos="50.00" arrivalSpeed="13.24" duration="11.00" routeLength="94.90" waitingTime="0.00" waitingCount="0" stopTime="0.00" timeLoss="3.73" rerouteNo="0" devices="tripinfo_flow_we.11" vType="car" speedFactor="1.04" vaporized=""/>
    <tripinfo id="flow_we.12" depart="144.00" departLane="west_to_center_0" departPos="5.10" departSpeed="0.00" departDelay="0.00" arrival="155.00" arrivalLane="center_to_east_0" arrivalPos="50.00" arrivalSpeed="11.96" duration="11.00" routeLength="94.90" waitingTime="0.00" waitingCount="0" stopTime="0.00" timeLoss="2.85" rerouteNo="0" devices="tripinfo_flow_we.12" vType="car" speedFactor="0.88" vaporized=""/>
    <tripinfo id="flow_ns.12" depart="144.00" departLane="north_to_center_0" departPos="5.10" departSpeed="0.00" departDelay="0.00" arrival="155.00" arrivalLane="center_to_south_0" arrivalPos="50.00" arrivalSpeed="11.75" duration="11.00" routeLength="94.90" waitingTime="0.00" waitingCount="0" stopTime="0.00" timeLoss="2.87" rerouteNo="0" devices="tripinfo_flow_ns.12" vType="car" speedFactor="0.85" vaporized=""/>
    <tripinfo id="flow_we.13" depart="156.00" departLane="west_to_center_0" departPos="5.10" departSpeed="0.00" departDelay="0.00" arrival="167.00" arrivalLane="center_to_east_0" arrivalPos="50.00" arrivalSpeed="13.93" duration="11.00" routeLength="94.90" waitingTime="0.00" waitingCount="0" stopTime="0.00" timeLoss="3.43" rerouteNo="0" devices="tripinfo_flow_we.13" vType="car" speedFactor="1.02" vaporized=""/>
    <tripinfo id="flow_ns.13" depart="156.00" departLane="north_to_center_0" departPos="5.10" departSpeed="0.00" departDelay="0.00" arrival="167.00" arrivalLane="center_to_south_0" arrivalPos="50.00" arrivalSpeed="12.91" duration="11.00" routeLength="94.90" waitingTime="0.00" waitingCount="0" stopTime="0.00" timeLoss="3.40" rerouteNo="0" devices="tripinfo_flow_ns.13" vType="car" speedFactor="1.00" vaporized=""/>
    <tripinfo id="flow_ew.11" depart="132.00" departLane="east_to_center_0" departPos="5.10" departSpeed="0.00" departDelay="0.00" arrival="181.00" arrivalLane="center_to_west_0" arrivalPos="50.00" arrivalSpeed="14.32" duration="49.00" routeLength="94.90" waitingTime="34.00" waitingCount="1" stopTime="0.00" timeLoss="42.14" rerouteNo="0" devices="tripinfo_flow_ew.11" vType="car" speedFactor="1.09" vaporized=""/>
    <tripinfo id="flow_sn.11" depart="132.00" departLane="south_to_center_0" departPos="5.10" departSpeed="0.00" departDelay="0.00" arrival="182.00" arrivalLane="center_to_north_0" arrivalPos="50.00" arrivalSpeed="11.87" duration="50.00" routeLength="94.90" waitingTime="33.00" waitingCount="1" stopTime="0.00" timeLoss="41.50" rerouteNo="0" devices="tripinfo_flow_sn.11" vType="car" speedFactor="0.90" vaporized=""/>
    <tripinfo id="flow_sn.12" depart="144.00" departLane="south_to_center_0" departPos="5.10" departSpeed="0.00" departDelay="0.00" arrival="183.00" arrivalLane="center_to_north_0" arrivalPos="50.00" arrivalSpeed="14.99" duration="39.00" routeLength="94.90" waitingTime="24.00" waitingCount="1" stopTime="0.00" timeLoss="32.84" rerouteNo="0" devices="tripinfo_flow_sn.12" vType="car" speedFactor="1.17" vaporized=""/>
    <tripinfo id="flow_ew.12" depart="144.00" departLane="east_to_center_0" departPos="5.10" departSpeed="0.00" departDelay="0.00" arrival="184.00" arrivalLane="center_to_west_0" arrivalPos="50.00" arrivalSpeed="11.15" duration="40.00" routeLength="94.90" waitingTime="23.00" waitingCount="1" stopTime="0.00" timeLoss="31.35" rerouteNo="0" devices="tripinfo_flow_ew.12" vType="car" speedFactor="0.85" vaporized=""/>
    <tripinfo id="flow_ew.13" depart="156.00" departLane="east_to_center_0" departPos="5.10" departSpeed="0.00" departDelay="0.00" arrival="185.00" arrivalLane="center_to_west_0" arrivalPos="50.00" arrivalSpeed="13.25" duration="29.00" routeLength="94.90" waitingTime="12.00" waitingCount="1" stopTime="0.00" timeLoss="22.75" rerouteNo="0" devices="tripinfo_flow_ew.13" vType="car" speedFactor="1.10" vaporized=""/>
    <tripinfo id="flow_sn.13" depart="156.00" departLane="south_to_center_0" departPos="5.10" departSpeed="0.00" departDelay="0.00" arrival="185.00" arrivalLane="center_to_north_0" arrivalPos="50.00" arrivalSpeed="13.18" duration="29.00" routeLength="94.90" waitingTime="12.00" waitingCount="1" stopTime="0.00" timeLoss="22.06" rerouteNo="0" devices="tripinfo_flow_sn.13" vType="car" speedFactor="1.00" vaporized=""/>
    <tripinfo id="flow_ew.14" depart="168.00" departLane="east_to_center_0" departPos="5.10" departSpeed="0.00" departDelay="0.00" arrival="187.00" arrivalLane="center_to_west_0" arrivalPos="50.00" arrivalSpeed="15.27" duration="19.00" routeLength="94.90" waitingTime="3.00" waitingCount="1" stopTime="0.00" timeLoss="12.66" rerouteNo="0" devices="tripinfo_flow_ew.14" vType="car" speedFactor="1.14" vaporized=""/>
    <tripinfo id="flow_sn.14" depart="168.00" departLane="south_to_center_0" departPos="5.10" departSpeed="0.00" departDelay="0.00" arrival="189.00" arrivalLane="center_to_north_0" arrivalPos="50.00" arrivalSpeed="12.29" duration="21.00" routeLength="94.90" waitingTime="3.00" waitingCount="1" stopTime="0.00" timeLoss="13.31" rerouteNo="0" devices="tripinfo_flow_sn.14" vType="car" speedFactor="0.97" vaporized=""/>
    <tripinfo id="flow_ew.15" depart="180.00" departLane="east_to_center_0" departPos="5.10" departSpeed="0.00" departDelay="0.00" arrival="190.00" arrivalLane="center_to_west_0" arrivalPos="50.00" arrivalSpeed="15.17" duration="10.00" routeLength="94.90" waitingTime="0.00" waitingCount="0" stopTime="0.00" timeLoss="3.24" rerouteNo="0" devices="tripinfo_flow_ew.15" vType="car" speedFactor="1.12" vaporized=""/>
    <tripinfo id="flow_sn.15" depart="180.00" departLane="south_to_center_0" departPos="5.10" departSpeed="0.00" departDelay="0.00" arrival="192.00" arrivalLane="center_to_north_0" arrivalPos="50.00" arrivalSpeed="13.34" duration="12.00" routeLength="94.90" waitingTime="0.00" waitingCount="0" stopTime="0.00" timeLoss="4.85" rerouteNo="0" devices="tripinfo_flow_sn.15" vType="car" speedFactor="0.99" vaporized=""/>
    <tripinfo id="flow_we.14" depart="168.00" departLane="west_to_center_0" departPos="5.10" departSpeed="0.00" departDelay="0.00" arrival="204.00" arrivalLane="center_to_east_0" arrivalPos="50.00" arrivalSpeed="12.08" duration="36.00" routeLength="94.90" waitingTime="20.00" waitingCount="1" stopTime="0.00" timeLoss="27.78" rerouteNo="0" devices="tripinfo_flow_we.14" vType="car" speedFactor="0.90" vaporized=""/>
    <tripinfo id="flow_ns.14" depart="168.00" departLane="north_to_center_0" departPos="5.10" departSpeed="0.00" departDelay="0.00" arrival="204.00" arrivalLane="center_to_south_0" arrivalPos="50.00" arrivalSpeed="13.36" duration="36.00" routeLength="94.90" waitingTime="19.00" waitingCount="1" stopTime="0.00" timeLoss="29.07" rerouteNo="0" devices="tripinfo_flow_ns.14" vType="car" speedFactor="1.02" vaporized=""/>
    <tripinfo id="flow_we.15" depart="181.00" departLane="west_to_center_0" departPos="5.10" departSpeed="0.00" departDelay="1.00" arrival="206.00" arrivalLane="center_to_east_0" arrivalPos="50.00" arrivalSpeed="14.77" duration="25.00" routeLength="94.90" waitingTime="10.00" waitingCount="1" stopTime="0.00" timeLoss="18.23" rerouteNo="0" devices="tripinfo_flow_we.15" vType="car" speedFactor="1.08" vaporized=""/>
    <tripinfo id="flow_ns.15" depart="183.00" departLane="north_to_center_0" departPos="5.10" departSpeed="0.00" departDelay="3.00" arrival="206.00" arrivalLane="center_to_south_0" arrivalPos="50.00" arrivalSpeed="13.99" duration="23.00" routeLength="94.90" waitingTime="7.00" waitingCount="1" stopTime="0.00" timeLoss="16.15" rerouteNo="0" devices="tripinfo_flow_ns.15" vType="car" speedFactor="1.02" vaporized=""/>
    <tripinfo id="flow_we.16" depart="192.00" departLane="west_to_center_0" departPos="5.10" departSpeed="0.00" departDelay="0.00" arrival="208.00" arrivalLane="center_to_east_0" arrivalPos="50.00" arrivalSpeed="12.92" duration="16.00" routeLength="94.90" waitingTime="0.00" waitingCount="0" stopTime="0.00" timeLoss="8.44" rerouteNo="0" devices="tripinfo_flow_we.16" vType="car" speedFactor="0.94" vaporized=""/>
    <tripinfo id="flow_ns.16" depart="192.00" departLane="north_to_center_0" departPos="5.10" departSpeed="0.00" departDelay="0.00" arrival="208.00" arrivalLane="center_to_south_0" arrivalPos="50.00" arrivalSpeed="11.99" duration="16.00" routeLength="94.90" waitingTime="0.00" waitingCount="0" stopTime="0.00" timeLoss="8.34" rerouteNo="0" devices="tripinfo_flow_ns.16" vType="car" speedFactor="0.91" vaporized=""/>
    <tripinfo id="flow_we.17" depart="204.00" departLane="west_to_center_0" departPos="5.10" departSpeed="0.00" departDelay="0.00" arrival="214.00" arrivalLane="center_to_east_0" arrivalPos="50.00" arrivalSpeed="14.07" duration="10.00" routeLength="94.90" waitingTime="0.00" waitingCount="0" stopTime="0.00" timeLoss="3.44" rerouteNo="0" devices="tripinfo_flow_we.17" vType="car" speedFactor="1.04" vaporized=""/>
    <tripinfo id="flow_ns.17" depart="204.00" departLane="north_to_center_0" departPos="5.10" departSpeed="0.00" departDelay="0.00" arrival="214.00" arrivalLane="center_to_south_0" arrivalPos="50.00" arrivalSpeed="13.47" duration="10.00" routeLength="94.90" waitingTime="0.00" waitingCount="0" stopTime="0.00" timeLoss="2.96" rerouteNo="0" devices="tripinfo_flow_ns.17" vType="car" speedFactor="1.02" vaporized=""/>
    <tripinfo id="flow_we.18" depart="216.00" departLane="west_to_center_0" departPos="5.10" departSpeed="0.00" departDelay="0.00" arrival="226.00" arrivalLane="center_to_east_0" arrivalPos="50.00" arrivalSpeed="12.51" duration="10.00" routeLength="94.90" waitingTime="0.00" waitingCount="0" stopTime="0.00" timeLoss="2.72" rerouteNo="0" devices="tripinfo_flow_we.18" vType="car" speedFactor="0.94" vaporized=""/>
    <tripinfo id="flow_ns.18" depart="216.00" departLane="north_to_center_0" departPos="5.10" departSpeed="0.00" departDelay="0.00" arrival="227.00" arrivalLane="center_to_south_0" arrivalPos="50.00" arrivalSpeed="12.40" duration="11.00" routeLength="94.90" waitingTime="0.00" waitingCount="0" stopTime="0.00" timeLoss="3.56" rerouteNo="0" devices="tripinfo_flow_ns.18" vType="car" speedFactor="0.96" vaporized=""/>