<?xml version="1.0" encoding="UTF-8"?>

<!-- generated on 2025-07-19 15:43:36 by Eclipse SUMO sumo Version 1.23.1
<sumoConfiguration xmlns:xsi="http://www.w3.org/2001/XMLSchema-instance" xsi:noNamespaceSchemaLocation="http://sumo.dlr.de/xsd/sumoConfiguration.xsd">

    <input>
        <net-file value="simulations/../networks/intersection.net.xml"/>
        <route-files value="simulations/../routes/vehicles.rou.xml"/>
    </input>

    <output>
        <tripinfo-output value="simulations/../output/tripinfo_no_tls.xml"/>
    </output>

    <time>
        <begin value="0"/>
        <end value="3600"/>
    </time>

</sumoConfiguration>
-->

<tripinfos xmlns:xsi="http://www.w3.org/2001/XMLSchema-instance" xsi:noNamespaceSchemaLocation="http://sumo.dlr.de/xsd/tripinfo_file.xsd">
    <tripinfo id="flow_ns.0" depart="0.00" departLane="north_to_center_0" departPos="5.10" departSpeed="0.00" departDelay="0.00" arrival="10.00" arrivalLane="center_to_south_0" arrivalPos="50.00" arrivalSpeed="13.52" duration="10.00" routeLength="94.90" waitingTime="0.00" waitingCount="0" stopTime="0.00" timeLoss="3.09" rerouteNo="0" devices="tripinfo_flow_ns.0" vType="car" speedFactor="1.01" vaporized=""/>
    <tripinfo id="flow_sn.0" depart="0.00" departLane="south_to_center_0" departPos="5.10" departSpeed="0.00" departDelay="0.00" arrival="10.00" arrivalLane="center_to_north_0" arrivalPos="50.00" arrivalSpeed="14.12" duration="10.00" routeLength="94.90" waitingTime="0.00" waitingCount="0" stopTime="0.00" timeLoss="3.23" rerouteNo="0" devices="tripinfo_flow_sn.0" vType="car" speedFactor="1.08" vaporized=""/>
    <tripinfo id="flow_ns.1" depart="12.00" departLane="north_to_center_0" departPos="5.10" departSpeed="0.00" departDelay="0.00" arrival="23.00" arrivalLane="center_to_south_0" arrivalPos="50.00" arrivalSpeed="13.67" duration="11.00" routeLength="94.90" waitingTime="0.00" waitingCount="0" stopTime="0.00" timeLoss="3.83" rerouteNo="0" devices="tripinfo_flow_ns.1" vType="car" speedFactor="1.05" vaporized=""/>
    <tripinfo id="flow_sn.1" depart="12.00" departLane="south_to_center_0" departPos="5.10" departSpeed="0.00" departDelay="0.00" arrival="23.00" arrivalLane="center_to_north_0" arrivalPos="50.00" arrivalSpeed="11.92" duration="11.00" routeLength="94.90" waitingTime="0.00" waitingCount="0" stopTime="0.00" timeLoss="3.08" rerouteNo="0" devices="tripinfo_flow_sn.1" vType="car" speedFactor="0.89" vaporized=""/>
    <tripinfo id="flow_ns.2" depart="24.00" departLane="north_to_center_0" departPos="5.10" departSpeed="0.00" departDelay="0.00" arrival="34.00" arrivalLane="center_to_south_0" arrivalPos="50.00" arrivalSpeed="14.52" duration="10.00" routeLength="94.90" waitingTime="0.00" waitingCount="0" stopTime="0.00" timeLoss="3.30" rerouteNo="0" devices="tripinfo_flow_ns.2" vType="car" speedFactor="1.09" vaporized=""/>
    <tripinfo id="flow_sn.2" depart="24.00" departLane="south_to_center_0" departPos="5.10" departSpeed="0.00" departDelay="0.00" arrival="35.00" arrivalLane="center_to_north_0" arrivalPos="50.00" arrivalSpeed="13.67" duration="11.00" routeLength="94.90" waitingTime="0.00" waitingCount="0" stopTime="0.00" timeLoss="3.43" rerouteNo="0" devices="tripinfo_flow_sn.2" vType="car" speedFactor="1.03" vaporized=""/>
    <tripinfo id="flow_we.0" depart="0.00" departLane="west_to_center_0" departPos="5.10" departSpeed="0.00" departDelay="0.00" arrival="51.00" arrivalLane="center_to_east_0" arrivalPos="50.00" arrivalSpeed="14.32" duration="51.00" routeLength="94.90" waitingTime="36.00" waitingCount="1" stopTime="0.00" timeLoss="44.38" rerouteNo="0" devices="tripinfo_flow_we.0" vType="car" speedFactor="1.06" vaporized=""/>
    <tripinfo id="flow_ew.0" depart="0.00" departLane="east_to_center_0" departPos="5.10" departSpeed="0.00" departDelay="0.00" arrival="51.00" arrivalLane="center_to_west_0" arrivalPos="50.00" arrivalSpeed="11.87" duration="51.00" routeLength="94.90" waitingTime="34.00" waitingCount="1" stopTime="0.00" timeLoss="43.46" rerouteNo="0" devices="tripinfo_flow_ew.0" vType="car" speedFactor="0.94" vaporized=""/>
    <tripinfo id="flow_we.1" depart="12.00" departLane="west_to_center_0" departPos="5.10" departSpeed="0.00" departDelay="0.00" arrival="53.00" arrivalLane="center_to_east_0" arrivalPos="50.00" arrivalSpeed="13.44" duration="41.00" routeLength="94.90" waitingTime="26.00" waitingCount="1" stopTime="0.00" timeLoss="34.16" rerouteNo="0" devices="tripinfo_flow_we.1" vType="car" speedFactor="1.03" vaporized=""/>
    <tripinfo id="flow_ew.1" depart="12.00" departLane="east_to_center_0" departPos="5.10" departSpeed="0.00" departDelay="0.00" arrival="54.00" arrivalLane="center_to_west_0" arrivalPos="50.00" arrivalSpeed="11.10" duration="42.00" routeLength="94.90" waitingTime="24.00" waitingCount="1" stopTime="0.00" timeLoss="33.34" rerouteNo="0" devices="tripinfo_flow_ew.1" vType="car" speedFactor="0.83" vaporized=""/>
    <tripinfo id="flow_we.2" depart="24.00" departLane="west_to_center_0" departPos="5.10" departSpeed="0.00" departDelay="0.00" arrival="55.00" arrivalLane="center_to_east_0" arrivalPos="50.00" arrivalSpeed="12.68" duration="31.00" routeLength="94.90" waitingTime="14.00" waitingCount="1" stopTime="0.00" timeLoss="23.29" rerouteNo="0" devices="tripinfo_flow_we.2" vType="car" speedFactor="0.94" vaporized=""/>
    <tripinfo id="flow_ew.2" depart="24.00" departLane="east_to_center_0" departPos="5.10" departSpeed="0.00" departDelay="0.00" arrival="56.00" arrivalLane="center_to_west_0" arrivalPos="50.00" arrivalSpeed="11.07" duration="32.00" routeLength="94.90" waitingTime="15.00" waitingCount="1" stopTime="0.00" timeLoss="23.52" rerouteNo="0" devices="tripinfo_flow_ew.2" vType="car" speedFactor="0.86" vaporized=""/>
    <tripinfo id="flow_we.3" depart="36.00" departLane="west_to_center_0" departPos="5.10" departSpeed="0.00" departDelay="0.00" arrival="57.00" arrivalLane="center_to_east_0" arrivalPos="50.00" arrivalSpeed="13.66" duration="21.00" routeLength="94.90" waitingTime="4.00" waitingCount="1" stopTime="0.00" timeLoss="14.18" rerouteNo="0" devices="tripinfo_flow_we.3" vType="car" speedFactor="1.05" vaporized=""/>
    <tripinfo id="flow_ew.3" depart="36.00" departLane="east_to_center_0" departPos="5.10" departSpeed="0.00" departDelay="0.00" arrival="58.00" arrivalLane="center_to_west_0" arrivalPos="50.00" arrivalSpeed="14.43" duration="22.00" routeLength="94.90" waitingTime="5.00" waitingCount="1" stopTime="0.00" timeLoss="15.01" rerouteNo="0" devices="tripinfo_flow_ew.3" vType="car" speedFactor="1.12" vaporized=""/>
    <tripinfo id="flow_we.4" depart="48.00" departLane="west_to_center_0" departPos="5.10" departSpeed="0.00" departDelay="0.00" arrival="59.00" arrivalLane="center_to_east_0" arrivalPos="50.00" arrivalSpeed="11.80" duration="11.00" routeLength="94.90" waitingTime="0.00" waitingCount="0" stopTime="0.00" timeLoss="3.18" rerouteNo="0" devices="tripinfo_flow_we.4" vType="car" speedFactor="0.88" vaporized=""/>
    <tripinfo id="flow_ew.4" depart="48.00" departLane="east_to_center_0" departPos="5.10" departSpeed="0.00" departDelay="0.00" arrival="60.00" arrivalLane="center_to_west_0" arrivalPos="50.00" arrivalSpeed="12.45" duration="12.00" routeLength="94.90" waitingTime="0.00" waitingCount="0" stopTime="0.00" timeLoss="3.81" rerouteNo="0" devices="tripinfo_flow_ew.4" vType="car" speedFactor="0.94" vaporized=""/>
    <tripinfo id="flow_we.5" depart="60.00" departLane="west_to_center_0" departPos="5.10" departSpeed="0.00" departDelay="0.00" arrival="71.00" arrivalLane="center_to_east_0" arrivalPos="50.00" arrivalSpeed="12.99" duration="11.00" routeLength="94.90" waitingTime="0.00" waitingCount="0" stopTime="0.00" timeLoss="3.70" rerouteNo="0" devices="tripinfo_flow_we.5" vType="car" speedFactor="1.02" vaporized=""/>
    <tripinfo id="flow_ew.5" depart="60.00" departLane="east_to_center_0" departPos="5.10" departSpeed="0.00" departDelay="0.00" arrival="71.00" arrivalLane="center_to_west_0" arrivalPos="50.00" arrivalSpeed="13.64" duration="11.00" routeLength="94.90" waitingTime="0.00" waitingCount="0" stopTime="0.00" timeLoss="3.47" rerouteNo="0" devices="tripinfo_flow_ew.5" vType="car" speedFactor="1.01" vaporized=""/>
    <tripinfo id="flow_ew.6" depart="72.00" departLane="east_to_center_0" departPos="5.10" departSpeed="0.00" departDelay="0.00" arrival="83.00" arrivalLane="center_to_west_0" arrivalPos="50.00" arrivalSpeed="12.05" duration="11.00" routeLength="94.90" waitingTime="0.00" waitingCount="0" stopTime="0.00" timeLoss="3.00" rerouteNo="0" devices="tripinfo_flow_ew.6" vType="car" speedFactor="0.87" vaporized=""/>
    <tripinfo id="flow_we.6" depart="72.00" departLane="west_to_center_0" departPos="5.10" departSpeed="0.00" departDelay="0.00" arrival="84.00" arrivalLane="center_to_east_0" arrivalPos="50.00" arrivalSpeed="11.08" duration="12.00" routeLength="94.90" waitingTime="0.00" waitingCount="0" stopTime="0.00" timeLoss="3.08" rerouteNo="0" devices="tripinfo_flow_we.6" vType="car" speedFactor="0.83" vaporized=""/>
    <tripinfo id="flow_ns.3" depart="36.00" departLane="north_to_center_0" departPos="5.10" departSpeed="0.00" departDelay="0.00" arrival="97.00" arrivalLane="center_to_south_0" arrivalPos="50.00" arrivalSpeed="13.65" duration="61.00" routeLength="94.90" waitingTime="44.00" waitingCount="1" stopTime="0.00" timeLoss="53.54" rerouteNo="0" devices="tripinfo_flow_ns.3" vType="car" speedFactor="0.99" vaporized=""/>
    <tripinfo id="flow_sn.3" depart="36.00" departLane="south_to_center_0" departPos="5.10" departSpeed="0.00" departDelay="0.00" arrival="97.00" arrivalLane="center_to_north_0" arrivalPos="50.00" arrivalSpeed="12.75" duration="61.00" routeLength="94.90" waitingTime="45.00" waitingCount="1" stopTime="0.00" timeLoss="52.71" rerouteNo="0" devices="tripinfo_flow_sn.3" vType="car" speedFactor="0.93" vaporized=""/>
    <tripinfo id="flow_sn.4" depart="48.00" departLane="south_to_center_0" departPos="5.10" departSpeed="0.00" departDelay="0.00" arrival="98.00" arrivalLane="center_to_north_0" arrivalPos="50.00" arrivalSpeed="13.35" duration="50.00" routeLength="94.90" waitingTime="34.00" waitingCount="1" stopTime="0.00" timeLoss="43.99" rerouteNo="0" devices="tripinfo_flow_sn.4" vType="car" speedFactor="1.16" vaporized=""/>
    <tripinfo id="flow_ns.4" depart="48.00" departLane="north_to_center_0" departPos="5.10" departSpeed="0.00" departDelay="0.00" arrival="99.00" arrivalLane="center_to_south_0" arrivalPos="50.00" arrivalSpeed="12.07" duration="51.00" routeLength="94.90" waitingTime="35.00" waitingCount="1" stopTime="0.00" timeLoss="43.08" rerouteNo="0" devices="tripinfo_flow_ns.4" vType="car" speedFactor="0.94" vaporized=""/>
    <tripinfo id="flow_ns.5" depart="60.00" departLane="north_to_center_0" departPos="5.10" departSpeed="0.00" departDelay="0.00" arrival="100.00" arrivalLane="center_to_south_0" arrivalPos="50.00" arrivalSpeed="13.48" duration="40.00" routeLength="94.90" waitingTime="23.00" waitingCount="1" stopTime="0.00" timeLoss="32.94" rerouteNo="0" devices="tripinfo_flow_ns.5" vType="car" speedFactor="0.97" vaporized=""/>
    <tripinfo id="flow_sn.5" depart="60.00" departLane="south_to_center_0" departPos="5.10" departSpeed="0.00" departDelay="0.00" arrival="100.00" arrivalLane="center_to_north_0" arrivalPos="50.00" arrivalSpeed="12.15" duration="40.00" routeLength="94.90" waitingTime="23.00" waitingCount="1" stopTime="0.00" timeLoss="31.95" rerouteNo="0" devices="tripinfo_flow_sn.5" vType="car" speedFactor="0.89" vaporized=""/>
    <tripinfo id="flow_ns.6" depart="72.00" departLane="north_to_center_0" departPos="5.10" departSpeed="0.00" departDelay="0.00" arrival="102.00" arrivalLane="center_to_south_0" arrivalPos="50.00" arrivalSpeed="11.51" duration="30.00" routeLength="94.90" waitingTime="13.00" waitingCount="1" stopTime="0.00" timeLoss="22.52" rerouteNo="0" devices="tripinfo_flow_ns.6" vType="car" speedFactor="0.92" vaporized=""/>
    <tripinfo id="flow_sn.6" depart="72.00" departLane="south_to_center_0" departPos="5.10" departSpeed="0.00" departDelay="0.00" arrival="102.00" arrivalLane="center_to_north_0" arrivalPos="50.00" arrivalSpeed="12.13" duration="30.00" routeLength="94.90" waitingTime="12.00" waitingCount="1" stopTime="0.00" timeLoss="22.16" rerouteNo="0" devices="tripinfo_flow_sn.6" vType="car" speedFactor="0.95" vaporized=""/>
    <tripinfo id="flow_sn.7" depart="84.00" departLane="south_to_center_0" departPos="5.10" departSpeed="0.00" departDelay="0.00" arrival="103.00" arrivalLane="center_to_north_0" arrivalPos="50.00" arrivalSpeed="14.64" duration="19.00" routeLength="94.90" waitingTime="4.00" waitingCount="1" stopTime="0.00" timeLoss="13.06" rerouteNo="0" devices="tripinfo_flow_sn.7" vType="car" speedFactor="1.15" vaporized=""/>
    <tripinfo id="flow_ns.7" depart="84.00" departLane="north_to_center_0" departPos="5.10" departSpeed="0.00" departDelay="0.00" arrival="104.00" arrivalLane="center_to_south_0" arrivalPos="50.00" arrivalSpeed="16.28" duration="20.00" routeLength="94.90" waitingTime="4.00" waitingCount="1" stopTime="0.00" timeLoss="13.69" rerouteNo="0" devices="tripinfo_flow_ns.7" vType="car" speedFactor="1.18" vaporized=""/>
    <tripinfo id="flow_ns.8" depart="103.00" departLane="north_to_center_0" departPos="5.10" departSpeed="0.00" departDelay="7.00" arrival="114.00" arrivalLane="center_to_south_0" arrivalPos="50.00" arrivalSpeed="13.33" duration="11.00" routeLength="94.90" waitingTime="0.00" waitingCount="0" stopTime="0.00" timeLoss="3.47" rerouteNo="0" devices="tripinfo_flow_ns.8" vType="car" speedFactor="0.99" vaporized=""/>
    <tripinfo id="flow_sn.8" depart="104.00" departLane="south_to_center_0" departPos="5.10" departSpeed="0.00" departDelay="8.00" arrival="115.00" arrivalLane="center_to_north_0" arrivalPos="50.00" arrivalSpeed="13.91" duration="11.00" routeLength="94.90" waitingTime="0.00" waitingCount="0" stopTime="0.00" timeLoss="3.65" rerouteNo="0" devices="tripinfo_flow_sn.8" vType="car" speedFactor="1.02" vaporized=""/>
    <tripinfo id="flow_ns.9" depart="108.00" departLane="north_to_center_0" departPos="5.10" departSpeed="0.00" departDelay="0.00" arrival="118.00" arrivalLane="center_to_south_0" arrivalPos="50.00" arrivalSpeed="14.98" duration="10.00" routeLength="94.90" waitingTime="0.00" waitingCount="0" stopTime="0.00" timeLoss="3.27" rerouteNo="0" devices="tripinfo_flow_ns.9" vType="car" speedFactor="1.10" vaporized=""/>
    <tripinfo id="flow_sn.9" depart="108.00" departLane="south_to_center_0" departPos="5.10" departSpeed="0.00" departDelay="0.00" arrival="119.00" arrivalLane="center_to_north_0" arrivalPos="50.00" arrivalSpeed="11.27" duration="11.00" routeLength="94.90" waitingTime="0.00" waitingCount="0" stopTime="0.00" timeLoss="3.31" rerouteNo="0" devices="tripinfo_flow_sn.9" vType="car" speedFactor="0.90" vaporized=""/>
    <tripinfo id="flow_ns.10" depart="120.00" departLane="north_to_center_0" departPos="5.10" departSpeed="0.00" departDelay="0.00" arrival="130.00" arrivalLane="center_to_south_0" arrivalPos="50.00" arrivalSpeed="14.74" duration="10.00" routeLength="94.90" waitingTime="0.00" waitingCount="0" stopTime="0.00" timeLoss="3.06" rerouteNo="0" devices="tripinfo_flow_ns.10" vType="car" speedFactor="1.09" vaporized=""/>
    <tripinfo id="flow_sn.10" depart="120.00" departLane="south_to_center_0" departPos="5.10" departSpeed="0.00" departDelay="0.00" arrival="130.00" arrivalLane="center_to_north_0" arrivalPos="50.00" arrivalSpeed="14.22" duration="10.00" routeLength="94.90" waitingTime="0.00" waitingCount="0" stopTime="0.00" timeLoss="3.38" rerouteNo="0" devices="tripinfo_flow_sn.10" vType="car" speedFactor="1.04" vaporized=""/>
    <tripinfo id="flow_we.7" depart="84.00" departLane="west_to_center_0" departPos="5.10" departSpeed="0.00" departDelay="0.00" arrival="141.00" arrivalLane="center_to_east_0" arrivalPos="50.00" arrivalSpeed="14.65" duration="57.00" routeLength="94.90" waitingTime="43.00" waitingCount="1" stopTime="0.00" timeLoss="50.62" rerouteNo="0" devices="tripinfo_flow_we.7" vType="car" speedFactor="1.13" vaporized=""/>
    <tripinfo id="flow_ew.7" depart="84.00" departLane="east_to_center_0" departPos="5.10" departSpeed="0.00" departDelay="0.00" arrival="141.00" arrivalLane="center_to_west_0" arrivalPos="50.00" arrivalSpeed="11.90" duration="57.00" routeLength="94.90" waitingTime="42.00" waitingCount="1" stopTime="0.00" timeLoss="49.26" rerouteNo="0" devices="tripinfo_flow_ew.7" vType="car" speedFactor="0.93" vaporized=""/>
    <tripinfo id="flow_we.8" depart="96.00" departLane="west_to_center_0" departPos="5.10" departSpeed="0.00" departDelay="0.00" arrival="143.00" arrivalLane="center_to_east_0" arrivalPos="50.00" arrivalSpeed="13.67" duration="47.00" routeLength="94.90" waitingTime="31.00" waitingCount="1" stopTime="0.00" timeLoss="39.69" rerouteNo="0" devices="tripinfo_flow_we.8" vType="car" speedFactor="1.01" vaporized=""/>
    <tripinfo id="flow_ew.8" depart="96.00" departLane="east_to_center_0" departPos="5.10" departSpeed="0.00" departDelay="0.00" arrival="143.00" arrivalLane="center_to_west_0" arrivalPos="50.00" arrivalSpeed="14.93" duration="47.00" routeLength="94.90" waitingTime="31.00" waitingCount="1" stopTime="0.00" timeLoss="40.58" rerouteNo="0" devices="tripinfo_flow_ew.8" vType="car" speedFactor="1.17" vaporized=""/>
    <tripinfo id="flow_we.9" depart="108.00" departLane="west_to_center_0" departPos="5.10" departSpeed="0.00" departDelay="0.00" arrival="145.00" arrivalLane="center_to_east_0" arrivalPos="50.00" arrivalSpeed="12.46" duration="37.00" routeLength="94.90" waitingTime="21.00" waitingCount="1" stopTime="0.00" timeLoss="29.40" rerouteNo="0" devices="tripinfo_flow_we.9" vType="car" speedFactor="0.97" vaporized=""/>
    <tripinfo id="flow_ew.9" depart="108.00" departLane="east_to_center_0" departPos="5.10" departSpeed="0.00" departDelay="0.00" arrival="145.00" arrivalLane="center_to_west_0" arrivalPos="50.00" arrivalSpeed="15.99" duration="37.00" routeLength="94.90" waitingTime="22.00" waitingCount="1" stopTime="0.00" timeLoss="30.47" rerouteNo="0" devices="tripinfo_flow_ew.9" vType="car" speedFactor="1.18" vaporized=""/>
    <tripinfo id="flow_we.10" depart="120.00" departLane="west_to_center_0" departPos="5.10" departSpeed="0.00" departDelay="0.00" arrival="147.00" arrivalLane="center_to_east_0" arrivalPos="50.00" arrivalSpeed="13.54" duration="27.00" routeLength="94.90" waitingTime="12.00" waitingCount="1" stopTime="0.00" timeLoss="19.54" rerouteNo="0" devices="tripinfo_flow_we.10" vType="car" speedFactor="1.03" vaporized=""/>
    <tripinfo id="flow_ew.10" depart="120.00" departLane="east_to_center_0" departPos="5.10" departSpeed="0.00" departDelay="0.00" arrival="147.00" arrivalLane="center_to_west_0" arrivalPos="50.00" arrivalSpeed="12.85" duration="27.00" routeLength="94.90" waitingTime="11.00" waitingCount="1" stopTime="0.00" timeLoss="18.94" rerouteNo="0" devices="tripinfo_flow_ew.10" vType="car" speedFactor="0.96" vaporized=""/>
    <tripinfo id="flow_ew.11" depart="132.00" departLane="east_to_center_0" departPos="5.10" departSpeed="0.00" departDelay="0.00" arrival="148.00" arrivalLane="center_to_west_0" arrivalPos="50.00" arrivalSpeed="14.83" duration="16.00" routeLength="94.90" waitingTime="0.00" waitingCount="0" stopTime="0.00" timeLoss="9.40" rerouteNo="0" devices="tripinfo_flow_ew.11" vType="car" speedFactor="1.09" vaporized=""/>
    <tripinfo id="flow_we.11" depart="132.00" departLane="west_to_center_0" departPos="5.10" departSpeed="0.00" departDelay="0.00" arrival="149.00" arrivalLane="center_to_east_0" arrivalPos="50.00" arrivalSpeed="13.24" duration="17.00" routeLength="94.90" waitingTime="0.00" waitingCount="0" stopTime="0.00" timeLoss="9.75" rerouteNo="0" devices="tripinfo_flow_we.11" vType="car" speedFactor="1.04" vaporized=""/>
    <tripinfo id="flow_we.12" depart="148.00" departLane="west_to_center_0" departPos="5.10" departSpeed="0.00" departDelay="4.00" arrival="160.00" arrivalLane="center_to_east_0" arrivalPos="50.00" arrivalSpeed="10.94" duration="12.00" routeLength="94.90" waitingTime="0.00" waitingCount="0" stopTime="0.00" timeLoss="3.51" rerouteNo="0" devices="tripinfo_flow_we.12" vType="car" speedFactor="0.88" vaporized=""/>
    <tripinfo id="flow_ew.12" depart="149.00" departLane="east_to_center_0" departPos="5.10" departSpeed="0.00" departDelay="5.00" arrival="160.00" arrivalLane="center_to_west_0" arrivalPos="50.00" arrivalSpeed="10.83" duration="11.00" routeLength="94.90" waitingTime="0.00" waitingCount="0" stopTime="0.00" timeLoss="2.74" rerouteNo="0" devices="tripinfo_flow_ew.12" vType="car" speedFactor="0.85" vaporized=""/>
    <tripinfo id="flow_ew.13" depart="156.00" departLane="east_to_center_0" departPos="5.10" departSpeed="0.00" departDelay="0.00" arrival="166.00" arrivalLane="center_to_west_0" arrivalPos="50.00" arrivalSpeed="14.53" duration="10.00" routeLength="94.90" waitingTime="0.00" waitingCount="0" stopTime="0.00" timeLoss="3.55" rerouteNo="0" devices="tripinfo_flow_ew.13" vType="car" speedFactor="1.10" vaporized=""/>
    <tripinfo id="flow_we.13" depart="156.00" departLane="west_to_center_0" departPos="5.10" departSpeed="0.00" departDelay="0.00" arrival="167.00" arrivalLane="center_to_east_0" arrivalPos="50.00" arrivalSpeed="14.09" duration="11.00" routeLength="94.90" waitingTime="0.00" waitingCount="0" stopTime="0.00" timeLoss="3.60" rerouteNo="0" devices="tripinfo_flow_we.13" vType="car" speedFactor="1.02" vaporized=""/>
    <tripinfo id="flow_ew.14" depart="168.00" departLane="east_to_center_0" departPos="5.10" departSpeed="0.00" departDelay="0.00" arrival="178.00" arrivalLane="center_to_west_0" arrivalPos="50.00" arrivalSpeed="15.42" duration="10.00" routeLength="94.90" waitingTime="0.00" waitingCount="0" stopTime="0.00" timeLoss="3.80" rerouteNo="0" devices="tripinfo_flow_ew.14" vType="car" speedFactor="1.14" vaporized=""/>
    <tripinfo id="flow_we.14" depart="168.00" departLane="west_to_center_0" departPos="5.10" departSpeed="0.00" departDelay="0.00" arrival="179.00" arrivalLane="center_to_east_0" arrivalPos="50.00" arrivalSpeed="12.40" duration="11.00" routeLength="94.90" waitingTime="0.00" waitingCount="0" stopTime="0.00" timeLoss="3.17" rerouteNo="0" devices="tripinfo_flow_we.14" vType="car" speedFactor="0.90" vaporized=""/>
    <tripinfo id="flow_ns.11" depart="132.00" departLane="north_to_center_0" departPos="5.10" departSpeed="0.00" departDelay="0.00" arrival="186.00" arrivalLane="center_to_south_0" arrivalPos="50.00" arrivalSpeed="13.82" duration="54.00" routeLength="94.90" waitingTime="39.00" waitingCount="1" stopTime="0.00" timeLoss="46.86" rerouteNo="0" devices="tripinfo_flow_ns.11" vType="car" speedFactor="1.00" vaporized=""/>
    <tripinfo id="flow_sn.11" depart="132.00" departLane="south_to_center_0" departPos="5.10" departSpeed="0.00" departDelay="0.00" arrival="186.00" arrivalLane="center_to_north_0" arrivalPos="50.00" arrivalSpeed="11.80" duration="54.00" routeLength="94.90" waitingTime="37.00" waitingCount="1" stopTime="0.00" timeLoss="46.08" rerouteNo="0" devices="tripinfo_flow_sn.11" vType="car" speedFactor="0.90" vaporized=""/>
    <tripinfo id="flow_ns.12" depart="144.00" departLane="north_to_center_0" departPos="5.10" departSpeed="0.00" departDelay="0.00" arrival="188.00" arrivalLane="center_to_south_0" arrivalPos="50.00" arrivalSpeed="11.75" duration="44.00" routeLength="94.90" waitingTime="27.00" waitingCount="1" stopTime="0.00" timeLoss="35.95" rerouteNo="0" devices="tripinfo_flow_ns.12" vType="car" speedFactor="0.85" vaporized=""/>
    <tripinfo id="flow_sn.12" depart="144.00" departLane="south_to_center_0" departPos="5.10" departSpeed="0.00" departDelay="0.00" arrival="188.00" arrivalLane="center_to_north_0" arrivalPos="50.00" arrivalSpeed="14.32" duration="44.00" routeLength="94.90" waitingTime="28.00" waitingCount="1" stopTime="0.00" timeLoss="37.69" rerouteNo="0" devices="tripinfo_flow_sn.12" vType="car" speedFactor="1.17" vaporized=""/>
    <tripinfo id="flow_ns.13" depart="156.00" departLane="north_to_center_0" departPos="5.10" departSpeed="0.00" departDelay="0.00" arrival="190.00" arrivalLane="center_to_south_0" arrivalPos="50.00" arrivalSpeed="12.91" duration="34.00" routeLength="94.90" waitingTime="19.00" waitingCount="1" stopTime="0.00" timeLoss="27.06" rerouteNo="0" devices="tripinfo_flow_ns.13" vType="car" speedFactor="1.00" vaporized=""/>
    <tripinfo id="flow_sn.13" depart="156.00" departLane="south_to_center_0" departPos="5.10" departSpeed="0.00" departDelay="0.00" arrival="190.00" arrivalLane="center_to_north_0" arrivalPos="50.00" arrivalSpeed="13.19" duration="34.00" routeLength="94.90" waitingTime="18.00" waitingCount="1" stopTime="0.00" timeLoss="26.44" rerouteNo="0" devices="tripinfo_flow_sn.13" vType="car" speedFactor="1.00" vaporized=""/>
    <tripinfo id="flow_ns.14" depart="168.00" departLane="north_to_center_0" departPos="5.10" departSpeed="0.00" departDelay="0.00" arrival="192.00" arrivalLane="center_to_south_0" arrivalPos="50.00" arrivalSpeed="13.49" duration="24.00" routeLength="94.90" waitingTime="7.00" waitingCount="1" stopTime="0.00" timeLoss="16.98" rerouteNo="0" devices="tripinfo_flow_ns.14" vType="car" speedFactor="1.02" vaporized=""/>
    <tripinfo id="flow_sn.14" depart="168.00" departLane="south_to_center_0" departPos="5.10" departSpeed="0.00" departDelay="0.00" arrival="192.00" arrivalLane="center_to_north_0" arrivalPos="50.00" arrivalSpeed="13.21" duration="24.00" routeLength="94.90" waitingTime="7.00" waitingCount="1" stopTime="0.00" timeLoss="16.33" rerouteNo="0" devices="tripinfo_flow_sn.14" vType="car" speedFactor="0.97" vaporized=""/>
    <tripinfo id="flow_ns.15" depart="180.00" departLane="north_to_center_0" departPos="5.10" departSpeed="0.00" departDelay="0.00" arrival="194.00" arrivalLane="center_to_south_0" arrivalPos="50.00" arrivalSpeed="13.00" duration="14.00" routeLength="94.90" waitingTime="0.00" waitingCount="0" stopTime="0.00" timeLoss="6.69" rerouteNo="0" devices="tripinfo_flow_ns.15" vType="car" speedFactor="1.02" vaporized=""/>
    <tripinfo id="flow_sn.15" depart="180.00" departLane="south_to_center_0" departPos="5.10" departSpeed="0.00" departDelay="0.00" arrival="194.00" arrivalLane="center_to_north_0" arrivalPos="50.00" arrivalSpeed="12.64" duration="14.00" routeLength="94.90" waitingTime="0.00" waitingCount="0" stopTime="0.00" timeLoss="6.65" rerouteNo="0" devices="tripinfo_flow_sn.15" vType="car" speedFactor="0.99" vaporized=""/>
    <tripinfo id="flow_ns.16" depart="194.00" departLane="north_to_center_0" departPos="5.10" departSpeed="0.00" departDelay="2.00" arrival="205.00" arrivalLane="center_to_south_0" arrivalPos="50.00" arrivalSpeed="12.11" duration="11.00" routeLength="94.90" waitingTime="0.00" waitingCount="0" stopTime="0.00" timeLoss="3.22" rerouteNo="0" devices="tripinfo_flow_ns.16" vType="car" speedFactor="0.91" vaporized=""/>
    <tripinfo id="flow_sn.16" depart="194.00" departLane="south_to_center_0" departPos="5.10" departSpeed="0.00" departDelay="2.00" arrival="205.00" arrivalLane="center_to_north_0" arrivalPos="50.00" arrivalSpeed="11.53" duration="11.00" routeLength="94.90" waitingTime="0.00" waitingCount="0" stopTime="0.00" timeLoss="2.88" rerouteNo="0" devices="tripinfo_flow_sn.16" vType="car" speedFactor="0.91" vaporized=""/>
    <tripinfo id="flow_ns.17" depart="205.00" departLane="north_to_center_0" departPos="5.10" departSpeed="0.00" departDelay="1.00" arrival="215.00" arrivalLane="center_to_south_0" arrivalPos="50.00" arrivalSpeed="13.76" duration="10.00" routeLength="94.90" waitingTime="0.00" waitingCount="0" stopTime="0.00" timeLoss="3.28" rerouteNo="0" devices="tripinfo_flow_ns.17" vType="car" speedFactor="1.02" vaporized=""/>
    <tripinfo id="flow_sn.17" depart="205.00" departLane="south_to_center_0" departPos="5.10" departSpeed="0.00" departDelay="1.00" arrival="216.00" arrivalLane="center_to_north_0" arrivalPos="50.00" arrivalSpeed="13.15" duration="11.00" routeLength="94.90" waitingTime="0.00" waitingCount="0" stopTime="0.00" timeLoss="3.29" rerouteNo="0" devices="tripinfo_flow_sn.17" vType="car" speedFactor="0.97" vaporized=""/>
    <tripinfo id="flow_we.15" depart="180.00" departLane="west_to_center_0" departPos="5.10" departSpeed="0.00" departDelay="0.00" arrival="231.00" arrivalLane="center_to_east_0" arrivalPos="50.00" arrivalSpeed="14.39" duration="51.00" routeLength="94.90" waitingTime="35.00" waitingCount="1" stopTime="0.00" timeLoss="44.29" rerouteNo="0" devices="tripinfo_flow_we.15" vType="car" speedFactor="1.08" vaporized=""/>
    <tripinfo id="flow_ew.15" depart="180.00" departLane="east_to_center_0" departPos="5.10" departSpeed="0.00" departDelay="0.00" arrival="231.00" arrivalLane="center_to_west_0" arrivalPos="50.00" arrivalSpeed="13.18" duration="51.00" routeLength="94.90" waitingTime="36.00" waitingCount="1" stopTime="0.00" timeLoss="44.84" rerouteNo="0" devices="tripinfo_flow_ew.15" vType="car" speedFactor="1.12" vaporized=""/>
    <tripinfo id="flow_we.16" depart="192.00" departLane="west_to_center_0" departPos="5.10" departSpeed="0.00" departDelay="0.00" arrival="233.00" arrivalLane="center_to_east_0" arrivalPos="50.00" arrivalSpeed="12.65" duration="41.00" routeLength="94.90" waitingTime="24.00" waitingCount="1" stopTime="0.00" timeLoss="33.11" rerouteNo="0" devices="tripinfo_flow_we.16" vType="car" speedFactor="0.94" vaporized=""/>
    <tripinfo id="flow_ew.16" depart="192.00" departLane="east_to_center_0" departPos="5.10" departSpeed="0.00" departDelay="0.00" arrival="234.00" arrivalLane="center_to_west_0" arrivalPos="50.00" arrivalSpeed="12.02" duration="42.00" routeLength="94.90" waitingTime="24.00" waitingCount="1" stopTime="0.00" timeLoss="33.32" rerouteNo="0" devices="tripinfo_flow_ew.16" vType="car" speedFactor="0.88" vaporized=""/>