<?xml version="1.0" encoding="UTF-8"?>

<!-- generated on 2025-07-18 13:13:15 by Eclipse SUMO GUI Version 1.23.1
<sumoConfiguration xmlns:xsi="http://www.w3.org/2001/XMLSchema-instance" xsi:noNamespaceSchemaLocation="http://sumo.dlr.de/xsd/sumoConfiguration.xsd">

    <input>
        <net-file value="networks/intersection.net.xml"/>
        <route-files value="routes/vehicles.rou.xml"/>
        <additional-files value="config/traffic_lights.tll.xml"/>
    </input>

    <output>
        <tripinfo-output value="output/tripinfo.xml"/>
    </output>

    <time>
        <begin value="0"/>
        <end value="3600"/>
    </time>

</sumoConfiguration>
-->

<tripinfos xmlns:xsi="http://www.w3.org/2001/XMLSchema-instance" xsi:noNamespaceSchemaLocation="http://sumo.dlr.de/xsd/tripinfo_file.xsd">
    <tripinfo id="flow_we.0" depart="0.00" departLane="west_to_center_0" departPos="5.10" departSpeed="0.00" departDelay="0.00" arrival="10.00" arrivalLane="center_to_east_0" arrivalPos="50.00" arrivalSpeed="14.08" duration="10.00" routeLength="94.90" waitingTime="0.00" waitingCount="0" stopTime="0.00" timeLoss="2.91" rerouteNo="0" devices="tripinfo_flow_we.0" vType="car" speedFactor="1.06" vaporized=""/>
    <tripinfo id="flow_ns.0" depart="0.00" departLane="north_to_center_0" departPos="5.10" departSpeed="0.00" departDelay="0.00" arrival="10.00" arrivalLane="center_to_south_0" arrivalPos="50.00" arrivalSpeed="13.52" duration="10.00" routeLength="94.90" waitingTime="0.00" waitingCount="0" stopTime="0.00" timeLoss="3.09" rerouteNo="0" devices="tripinfo_flow_ns.0" vType="car" speedFactor="1.01" vaporized=""/>
    <tripinfo id="flow_we.1" depart="6.00" departLane="west_to_center_0" departPos="5.10" departSpeed="0.00" departDelay="0.00" arrival="16.00" arrivalLane="center_to_east_0" arrivalPos="50.00" arrivalSpeed="13.34" duration="10.00" routeLength="94.90" waitingTime="0.00" waitingCount="0" stopTime="0.00" timeLoss="3.12" rerouteNo="0" devices="tripinfo_flow_we.1" vType="car" speedFactor="1.03" vaporized=""/>
    <tripinfo id="flow_ns.1" depart="6.00" departLane="north_to_center_0" departPos="5.10" departSpeed="0.00" departDelay="0.00" arrival="17.00" arrivalLane="center_to_south_0" arrivalPos="50.00" arrivalSpeed="13.67" duration="11.00" routeLength="94.90" waitingTime="0.00" waitingCount="0" stopTime="0.00" timeLoss="3.83" rerouteNo="0" devices="tripinfo_flow_ns.1" vType="car" speedFactor="1.05" vaporized=""/>
    <tripinfo id="flow_ns.2" depart="12.00" departLane="north_to_center_0" departPos="5.10" departSpeed="0.00" departDelay="0.00" arrival="22.00" arrivalLane="center_to_south_0" arrivalPos="50.00" arrivalSpeed="14.52" duration="10.00" routeLength="94.90" waitingTime="0.00" waitingCount="0" stopTime="0.00" timeLoss="3.30" rerouteNo="0" devices="tripinfo_flow_ns.2" vType="car" speedFactor="1.09" vaporized=""/>
    <tripinfo id="flow_we.2" depart="12.00" departLane="west_to_center_0" departPos="5.10" departSpeed="0.00" departDelay="0.00" arrival="23.00" arrivalLane="center_to_east_0" arrivalPos="50.00" arrivalSpeed="13.02" duration="11.00" routeLength="94.90" waitingTime="0.00" waitingCount="0" stopTime="0.00" timeLoss="2.95" rerouteNo="0" devices="tripinfo_flow_we.2" vType="car" speedFactor="0.94" vaporized=""/>
    <tripinfo id="flow_we.3" depart="18.00" departLane="west_to_center_0" departPos="5.10" departSpeed="0.00" departDelay="0.00" arrival="28.00" arrivalLane="center_to_east_0" arrivalPos="50.00" arrivalSpeed="13.96" duration="10.00" routeLength="94.90" waitingTime="0.00" waitingCount="0" stopTime="0.00" timeLoss="3.30" rerouteNo="0" devices="tripinfo_flow_we.3" vType="car" speedFactor="1.05" vaporized=""/>
    <tripinfo id="flow_ns.3" depart="18.00" departLane="north_to_center_0" departPos="5.10" departSpeed="0.00" departDelay="0.00" arrival="29.00" arrivalLane="center_to_south_0" arrivalPos="50.00" arrivalSpeed="12.50" duration="11.00" routeLength="94.90" waitingTime="0.00" waitingCount="0" stopTime="0.00" timeLoss="3.27" rerouteNo="0" devices="tripinfo_flow_ns.3" vType="car" speedFactor="0.99" vaporized=""/>
    <tripinfo id="flow_ew.0" depart="0.00" departLane="east_to_center_0" departPos="5.10" departSpeed="0.00" departDelay="0.00" arrival="39.00" arrivalLane="center_to_west_0" arrivalPos="50.00" arrivalSpeed="12.20" duration="39.00" routeLength="94.90" waitingTime="22.00" waitingCount="1" stopTime="0.00" timeLoss="31.45" rerouteNo="0" devices="tripinfo_flow_ew.0" vType="car" speedFactor="0.94" vaporized=""/>
    <tripinfo id="flow_sn.0" depart="0.00" departLane="south_to_center_0" departPos="5.10" departSpeed="0.00" departDelay="0.00" arrival="39.00" arrivalLane="center_to_north_0" arrivalPos="50.00" arrivalSpeed="13.24" duration="39.00" routeLength="94.90" waitingTime="24.00" waitingCount="1" stopTime="0.00" timeLoss="32.27" rerouteNo="0" devices="tripinfo_flow_sn.0" vType="car" speedFactor="1.08" vaporized=""/>
    <tripinfo id="flow_sn.1" depart="6.00" departLane="south_to_center_0" departPos="5.10" departSpeed="0.00" departDelay="0.00" arrival="41.00" arrivalLane="center_to_north_0" arrivalPos="50.00" arrivalSpeed="11.30" duration="35.00" routeLength="94.90" waitingTime="18.00" waitingCount="1" stopTime="0.00" timeLoss="27.19" rerouteNo="0" devices="tripinfo_flow_sn.1" vType="car" speedFactor="0.89" vaporized=""/>
    <tripinfo id="flow_ew.1" depart="6.00" departLane="east_to_center_0" departPos="5.10" departSpeed="0.00" departDelay="0.00" arrival="42.00" arrivalLane="center_to_west_0" arrivalPos="50.00" arrivalSpeed="10.97" duration="36.00" routeLength="94.90" waitingTime="20.00" waitingCount="1" stopTime="0.00" timeLoss="26.85" rerouteNo="0" devices="tripinfo_flow_ew.1" vType="car" speedFactor="0.83" vaporized=""/>
    <tripinfo id="flow_ew.2" depart="12.00" departLane="east_to_center_0" departPos="5.10" departSpeed="0.00" departDelay="0.00" arrival="43.00" arrivalLane="center_to_west_0" arrivalPos="50.00" arrivalSpeed="10.91" duration="31.00" routeLength="94.90" waitingTime="15.00" waitingCount="1" stopTime="0.00" timeLoss="22.94" rerouteNo="0" devices="tripinfo_flow_ew.2" vType="car" speedFactor="0.86" vaporized=""/>
    <tripinfo id="flow_sn.2" depart="12.00" departLane="south_to_center_0" departPos="5.10" departSpeed="0.00" departDelay="0.00" arrival="43.00" arrivalLane="center_to_north_0" arrivalPos="50.00" arrivalSpeed="13.37" duration="31.00" routeLength="94.90" waitingTime="14.00" waitingCount="1" stopTime="0.00" timeLoss="24.27" rerouteNo="0" devices="tripinfo_flow_sn.2" vType="car" speedFactor="1.03" vaporized=""/>
    <tripinfo id="flow_ew.3" depart="18.00" departLane="east_to_center_0" departPos="5.10" departSpeed="0.00" departDelay="0.00" arrival="45.00" arrivalLane="center_to_west_0" arrivalPos="50.00" arrivalSpeed="14.95" duration="27.00" routeLength="94.90" waitingTime="10.00" waitingCount="1" stopTime="0.00" timeLoss="20.49" rerouteNo="0" devices="tripinfo_flow_ew.3" vType="car" speedFactor="1.12" vaporized=""/>
    <tripinfo id="flow_sn.3" depart="18.00" departLane="south_to_center_0" departPos="5.10" departSpeed="0.00" departDelay="0.00" arrival="45.00" arrivalLane="center_to_north_0" arrivalPos="50.00" arrivalSpeed="11.81" duration="27.00" routeLength="94.90" waitingTime="12.00" waitingCount="1" stopTime="0.00" timeLoss="19.48" rerouteNo="0" devices="tripinfo_flow_sn.3" vType="car" speedFactor="0.93" vaporized=""/>
    <tripinfo id="flow_ew.4" depart="24.00" departLane="east_to_center_0" departPos="5.10" departSpeed="0.00" departDelay="0.00" arrival="48.00" arrivalLane="center_to_west_0" arrivalPos="50.00" arrivalSpeed="12.59" duration="24.00" routeLength="94.90" waitingTime="7.00" waitingCount="1" stopTime="0.00" timeLoss="15.93" rerouteNo="0" devices="tripinfo_flow_ew.4" vType="car" speedFactor="0.94" vaporized=""/>
    <tripinfo id="flow_sn.4" depart="24.00" departLane="south_to_center_0" departPos="5.10" departSpeed="0.00" departDelay="0.00" arrival="48.00" arrivalLane="center_to_north_0" arrivalPos="50.00" arrivalSpeed="14.00" duration="24.00" routeLength="94.90" waitingTime="6.00" waitingCount="1" stopTime="0.00" timeLoss="18.01" rerouteNo="0" devices="tripinfo_flow_sn.4" vType="car" speedFactor="1.16" vaporized=""/>
    <tripinfo id="flow_ew.5" depart="30.00" departLane="east_to_center_0" departPos="5.10" departSpeed="0.00" departDelay="0.00" arrival="49.00" arrivalLane="center_to_west_0" arrivalPos="50.00" arrivalSpeed="13.64" duration="19.00" routeLength="94.90" waitingTime="5.00" waitingCount="1" stopTime="0.00" timeLoss="12.07" rerouteNo="0" devices="tripinfo_flow_ew.5" vType="car" speedFactor="1.01" vaporized=""/>
    <tripinfo id="flow_sn.5" depart="30.00" departLane="south_to_center_0" departPos="5.10" departSpeed="0.00" departDelay="0.00" arrival="50.00" arrivalLane="center_to_north_0" arrivalPos="50.00" arrivalSpeed="12.15" duration="20.00" routeLength="94.90" waitingTime="4.00" waitingCount="1" stopTime="0.00" timeLoss="12.18" rerouteNo="0" devices="tripinfo_flow_sn.5" vType="car" speedFactor="0.89" vaporized=""/>
    <tripinfo id="flow_ew.6" depart="39.00" departLane="east_to_center_0" departPos="5.10" departSpeed="0.00" departDelay="3.00" arrival="52.00" arrivalLane="center_to_west_0" arrivalPos="50.00" arrivalSpeed="11.95" duration="13.00" routeLength="94.90" waitingTime="0.00" waitingCount="0" stopTime="0.00" timeLoss="4.26" rerouteNo="0" devices="tripinfo_flow_ew.6" vType="car" speedFactor="0.87" vaporized=""/>
    <tripinfo id="flow_sn.6" depart="39.00" departLane="south_to_center_0" departPos="5.10" departSpeed="0.00" departDelay="3.00" arrival="52.00" arrivalLane="center_to_north_0" arrivalPos="50.00" arrivalSpeed="13.02" duration="13.00" routeLength="94.90" waitingTime="0.00" waitingCount="0" stopTime="0.00" timeLoss="5.39" rerouteNo="0" devices="tripinfo_flow_sn.6" vType="car" speedFactor="0.95" vaporized=""/>
    <tripinfo id="flow_ew.7" depart="43.00" departLane="east_to_center_0" departPos="5.10" departSpeed="0.00" departDelay="1.00" arrival="54.00" arrivalLane="center_to_west_0" arrivalPos="50.00" arrivalSpeed="12.76" duration="11.00" routeLength="94.90" waitingTime="0.00" waitingCount="0" stopTime="0.00" timeLoss="3.28" rerouteNo="0" devices="tripinfo_flow_ew.7" vType="car" speedFactor="0.93" vaporized=""/>
    <tripinfo id="flow_sn.7" depart="42.00" departLane="south_to_center_0" departPos="5.10" departSpeed="0.00" departDelay="0.00" arrival="56.00" arrivalLane="center_to_north_0" arrivalPos="50.00" arrivalSpeed="14.84" duration="14.00" routeLength="94.90" waitingTime="0.00" waitingCount="0" stopTime="0.00" timeLoss="7.33" rerouteNo="0" devices="tripinfo_flow_sn.7" vType="car" speedFactor="1.15" vaporized=""/>
    <tripinfo id="flow_ew.8" depart="48.00" departLane="east_to_center_0" departPos="5.10" departSpeed="0.00" departDelay="0.00" arrival="58.00" arrivalLane="center_to_west_0" arrivalPos="50.00" arrivalSpeed="15.23" duration="10.00" routeLength="94.90" waitingTime="0.00" waitingCount="0" stopTime="0.00" timeLoss="3.61" rerouteNo="0" devices="tripinfo_flow_ew.8" vType="car" speedFactor="1.17" vaporized=""/>
    <tripinfo id="flow_sn.8" depart="48.00" departLane="south_to_center_0" departPos="5.10" departSpeed="0.00" departDelay="0.00" arrival="61.00" arrivalLane="center_to_north_0" arrivalPos="50.00" arrivalSpeed="13.32" duration="13.00" routeLength="94.90" waitingTime="0.00" waitingCount="0" stopTime="0.00" timeLoss="5.49" rerouteNo="0" devices="tripinfo_flow_sn.8" vType="car" speedFactor="1.02" vaporized=""/>
    <tripinfo id="flow_ew.9" depart="54.00" departLane="east_to_center_0" departPos="5.10" departSpeed="0.00" departDelay="0.00" arrival="65.00" arrivalLane="center_to_west_0" arrivalPos="50.00" arrivalSpeed="15.67" duration="11.00" routeLength="94.90" waitingTime="0.00" waitingCount="0" stopTime="0.00" timeLoss="4.36" rerouteNo="0" devices="tripinfo_flow_ew.9" vType="car" speedFactor="1.18" vaporized=""/>
    <tripinfo id="flow_sn.9" depart="54.00" departLane="south_to_center_0" departPos="5.10" departSpeed="0.00" departDelay="0.00" arrival="66.00" arrivalLane="center_to_north_0" arrivalPos="50.00" arrivalSpeed="12.31" duration="12.00" routeLength="94.90" waitingTime="0.00" waitingCount="0" stopTime="0.00" timeLoss="4.40" rerouteNo="0" devices="tripinfo_flow_sn.9" vType="car" speedFactor="0.90" vaporized=""/>
    <tripinfo id="flow_we.4" depart="24.00" departLane="west_to_center_0" departPos="5.10" departSpeed="0.00" departDelay="0.00" arrival="72.00" arrivalLane="center_to_east_0" arrivalPos="50.00" arrivalSpeed="11.53" duration="48.00" routeLength="94.90" waitingTime="32.00" waitingCount="1" stopTime="0.00" timeLoss="40.13" rerouteNo="0" devices="tripinfo_flow_we.4" vType="car" speedFactor="0.88" vaporized=""/>
    <tripinfo id="flow_ns.4" depart="24.00" departLane="north_to_center_0" departPos="5.10" departSpeed="0.00" departDelay="0.00" arrival="72.00" arrivalLane="center_to_south_0" arrivalPos="50.00" arrivalSpeed="12.17" duration="48.00" routeLength="94.90" waitingTime="32.00" waitingCount="1" stopTime="0.00" timeLoss="40.66" rerouteNo="0" devices="tripinfo_flow_ns.4" vType="car" speedFactor="0.94" vaporized=""/>
    <tripinfo id="flow_we.5" depart="30.00" departLane="west_to_center_0" departPos="5.10" departSpeed="0.00" departDelay="0.00" arrival="74.00" arrivalLane="center_to_east_0" arrivalPos="50.00" arrivalSpeed="13.07" duration="44.00" routeLength="94.90" waitingTime="27.00" waitingCount="1" stopTime="0.00" timeLoss="37.02" rerouteNo="0" devices="tripinfo_flow_we.5" vType="car" speedFactor="1.02" vaporized=""/>
    <tripinfo id="flow_ns.5" depart="30.00" departLane="north_to_center_0" departPos="5.10" departSpeed="0.00" departDelay="0.00" arrival="74.00" arrivalLane="center_to_south_0" arrivalPos="50.00" arrivalSpeed="13.54" duration="44.00" routeLength="94.90" waitingTime="28.00" waitingCount="1" stopTime="0.00" timeLoss="36.71" rerouteNo="0" devices="tripinfo_flow_ns.5" vType="car" speedFactor="0.97" vaporized=""/>
    <tripinfo id="flow_ns.6" depart="36.00" departLane="north_to_center_0" departPos="5.10" departSpeed="0.00" departDelay="0.00" arrival="76.00" arrivalLane="center_to_south_0" arrivalPos="50.00" arrivalSpeed="11.74" duration="40.00" routeLength="94.90" waitingTime="24.00" waitingCount="1" stopTime="0.00" timeLoss="32.26" rerouteNo="0" devices="tripinfo_flow_ns.6" vType="car" speedFactor="0.92" vaporized=""/>
    <tripinfo id="flow_we.6" depart="36.00" departLane="west_to_center_0" departPos="5.10" departSpeed="0.00" departDelay="0.00" arrival="77.00" arrivalLane="center_to_east_0" arrivalPos="50.00" arrivalSpeed="11.08" duration="41.00" routeLength="94.90" waitingTime="23.00" waitingCount="1" stopTime="0.00" timeLoss="32.27" rerouteNo="0" devices="tripinfo_flow_we.6" vType="car" speedFactor="0.83" vaporized=""/>
    <tripinfo id="flow_ns.7" depart="45.00" departLane="north_to_center_0" departPos="5.10" departSpeed="0.00" departDelay="3.00" arrival="78.00" arrivalLane="center_to_south_0" arrivalPos="50.00" arrivalSpeed="15.61" duration="33.00" routeLength="94.90" waitingTime="16.00" waitingCount="1" stopTime="0.00" timeLoss="26.47" rerouteNo="0" devices="tripinfo_flow_ns.7" vType="car" speedFactor="1.18" vaporized=""/>
    <tripinfo id="flow_we.7" depart="45.00" departLane="west_to_center_0" departPos="5.10" departSpeed="0.00" departDelay="3.00" arrival="79.00" arrivalLane="center_to_east_0" arrivalPos="50.00" arrivalSpeed="13.69" duration="34.00" routeLength="94.90" waitingTime="16.00" waitingCount="1" stopTime="0.00" timeLoss="27.30" rerouteNo="0" devices="tripinfo_flow_we.7" vType="car" speedFactor="1.13" vaporized=""/>
    <tripinfo id="flow_we.8" depart="54.00" departLane="west_to_center_0" departPos="5.10" departSpeed="0.00" departDelay="6.00" arrival="80.00" arrivalLane="center_to_east_0" arrivalPos="50.00" arrivalSpeed="13.80" duration="26.00" routeLength="94.90" waitingTime="10.00" waitingCount="1" stopTime="0.00" timeLoss="19.12" rerouteNo="0" devices="tripinfo_flow_we.8" vType="car" speedFactor="1.01" vaporized=""/>
    <tripinfo id="flow_ns.8" depart="52.00" departLane="north_to_center_0" departPos="5.10" departSpeed="0.00" departDelay="4.00" arrival="80.00" arrivalLane="center_to_south_0" arrivalPos="50.00" arrivalSpeed="13.07" duration="28.00" routeLength="94.90" waitingTime="12.00" waitingCount="1" stopTime="0.00" timeLoss="20.45" rerouteNo="0" devices="tripinfo_flow_ns.8" vType="car" speedFactor="0.99" vaporized=""/>
    <tripinfo id="flow_ns.9" depart="56.00" departLane="north_to_center_0" departPos="5.10" departSpeed="0.00" departDelay="2.00" arrival="81.00" arrivalLane="center_to_south_0" arrivalPos="50.00" arrivalSpeed="13.95" duration="25.00" routeLength="94.90" waitingTime="10.00" waitingCount="1" stopTime="0.00" timeLoss="18.68" rerouteNo="0" devices="tripinfo_flow_ns.9" vType="car" speedFactor="1.10" vaporized=""/>
    <tripinfo id="flow_we.9" depart="58.00" departLane="west_to_center_0" departPos="5.10" departSpeed="0.00" departDelay="4.00" arrival="82.00" arrivalLane="center_to_east_0" arrivalPos="50.00" arrivalSpeed="13.23" duration="24.00" routeLength="94.90" waitingTime="8.00" waitingCount="1" stopTime="0.00" timeLoss="16.75" rerouteNo="0" devices="tripinfo_flow_we.9" vType="car" speedFactor="0.97" vaporized=""/>
    <tripinfo id="flow_ns.10" depart="72.00" departLane="north_to_center_0" departPos="5.10" departSpeed="0.00" departDelay="12.00" arrival="83.00" arrivalLane="center_to_south_0" arrivalPos="50.00" arrivalSpeed="14.79" duration="11.00" routeLength="94.90" waitingTime="1.00" waitingCount="1" stopTime="0.00" timeLoss="4.37" rerouteNo="0" devices="tripinfo_flow_ns.10" vType="car" speedFactor="1.09" vaporized=""/>
    <tripinfo id="flow_we.10" depart="72.00" departLane="west_to_center_0" departPos="5.10" departSpeed="0.00" departDelay="12.00" arrival="84.00" arrivalLane="center_to_east_0" arrivalPos="50.00" arrivalSpeed="14.00" duration="12.00" routeLength="94.90" waitingTime="0.00" waitingCount="0" stopTime="0.00" timeLoss="4.83" rerouteNo="0" devices="tripinfo_flow_we.10" vType="car" speedFactor="1.03" vaporized=""/>
    <tripinfo id="flow_we.11" depart="76.00" departLane="west_to_center_0" departPos="5.10" departSpeed="0.00" departDelay="10.00" arrival="87.00" arrivalLane="center_to_east_0" arrivalPos="50.00" arrivalSpeed="13.72" duration="11.00" routeLength="94.90" waitingTime="0.00" waitingCount="0" stopTime="0.00" timeLoss="3.58" rerouteNo="0" devices="tripinfo_flow_we.11" vType="car" speedFactor="1.04" vaporized=""/>
    <tripinfo id="flow_ns.11" depart="76.00" departLane="north_to_center_0" departPos="5.10" departSpeed="0.00" departDelay="10.00" arrival="87.00" arrivalLane="center_to_south_0" arrivalPos="50.00" arrivalSpeed="13.38" duration="11.00" routeLength="94.90" waitingTime="0.00" waitingCount="0" stopTime="0.00" timeLoss="3.46" rerouteNo="0" devices="tripinfo_flow_ns.11" vType="car" speedFactor="1.00" vaporized=""/>
    <tripinfo id="flow_we.12" depart="79.00" departLane="west_to_center_0" departPos="5.10" departSpeed="0.00" departDelay="7.00" arrival="90.00" arrivalLane="center_to_east_0" arrivalPos="50.00" arrivalSpeed="11.78" duration="11.00" routeLength="94.90" waitingTime="0.00" waitingCount="0" stopTime="0.00" timeLoss="2.68" rerouteNo="0" devices="tripinfo_flow_we.12" vType="car" speedFactor="0.88" vaporized=""/>
    <tripinfo id="flow_ns.12" depart="79.00" departLane="north_to_center_0" departPos="5.10" departSpeed="0.00" departDelay="7.00" arrival="90.00" arrivalLane="center_to_south_0" arrivalPos="50.00" arrivalSpeed="11.03" duration="11.00" routeLength="94.90" waitingTime="0.00" waitingCount="0" stopTime="0.00" timeLoss="3.00" rerouteNo="0" devices="tripinfo_flow_ns.12" vType="car" speedFactor="0.85" vaporized=""/>
    <tripinfo id="flow_we.13" depart="82.00" departLane="west_to_center_0" departPos="5.10" departSpeed="0.00" departDelay="4.00" arrival="92.00" arrivalLane="center_to_east_0" arrivalPos="50.00" arrivalSpeed="13.90" duration="10.00" routeLength="94.90" waitingTime="0.00" waitingCount="0" stopTime="0.00" timeLoss="3.04" rerouteNo="0" devices="tripinfo_flow_we.13" vType="car" speedFactor="1.02" vaporized=""/>
    <tripinfo id="flow_ns.13" depart="82.00" departLane="north_to_center_0" departPos="5.10" departSpeed="0.00" departDelay="4.00" arrival="93.00" arrivalLane="center_to_south_0" arrivalPos="50.00" arrivalSpeed="13.01" duration="11.00" routeLength="94.90" waitingTime="0.00" waitingCount="0" stopTime="0.00" timeLoss="3.68" rerouteNo="0" devices="tripinfo_flow_ns.13" vType="car" speedFactor="1.00" vaporized=""/>
    <tripinfo id="flow_we.14" depart="85.00" departLane="west_to_center_0" departPos="5.10" departSpeed="0.00" departDelay="1.00" arrival="96.00" arrivalLane="center_to_east_0" arrivalPos="50.00" arrivalSpeed="12.29" duration="11.00" routeLength="94.90" waitingTime="0.00" waitingCount="0" stopTime="0.00" timeLoss="2.66" rerouteNo="0" devices="tripinfo_flow_we.14" vType="car" speedFactor="0.90" vaporized=""/>
    <tripinfo id="flow_ns.14" depart="85.00" departLane="north_to_center_0" departPos="5.10" departSpeed="0.00" departDelay="1.00" arrival="96.00" arrivalLane="center_to_south_0" arrivalPos="50.00" arrivalSpeed="14.02" duration="11.00" routeLength="94.90" waitingTime="0.00" waitingCount="0" stopTime="0.00" timeLoss="3.51" rerouteNo="0" devices="tripinfo_flow_ns.14" vType="car" speedFactor="1.02" vaporized=""/>
    <tripinfo id="flow_sn.10" depart="60.00" departLane="south_to_center_0" departPos="5.10" departSpeed="0.00" departDelay="0.00" arrival="105.00" arrivalLane="center_to_north_0" arrivalPos="50.00" arrivalSpeed="13.51" duration="45.00" routeLength="94.90" waitingTime="30.00" waitingCount="1" stopTime="0.00" timeLoss="38.38" rerouteNo="0" devices="tripinfo_flow_sn.10" vType="car" speedFactor="1.04" vaporized=""/>
    <tripinfo id="flow_ew.10" depart="60.00" departLane="east_to_center_0" departPos="5.10" departSpeed="0.00" departDelay="0.00" arrival="106.00" arrivalLane="center_to_west_0" arrivalPos="50.00" arrivalSpeed="13.14" duration="46.00" routeLength="94.90" waitingTime="28.00" waitingCount="1" stopTime="0.00" timeLoss="38.11" rerouteNo="0" devices="tripinfo_flow_ew.10" vType="car" speedFactor="0.96" vaporized=""/>
    <tripinfo id="flow_ew.11" depart="66.00" departLane="east_to_center_0" departPos="5.10" departSpeed="0.00" departDelay="0.00" arrival="107.00" arrivalLane="center_to_west_0" arrivalPos="50.00" arrivalSpeed="14.32" duration="41.00" routeLength="94.90" waitingTime="26.00" waitingCount="1" stopTime="0.00" timeLoss="34.59" rerouteNo="0" devices="tripinfo_flow_ew.11" vType="car" speedFactor="1.09" vaporized=""/>
    <tripinfo id="flow_sn.11" depart="66.00" departLane="south_to_center_0" departPos="5.10" departSpeed="0.00" departDelay="0.00" arrival="108.00" arrivalLane="center_to_north_0" arrivalPos="50.00" arrivalSpeed="11.36" duration="42.00" routeLength="94.90" waitingTime="24.00" waitingCount="1" stopTime="0.00" timeLoss="34.14" rerouteNo="0" devices="tripinfo_flow_sn.11" vType="car" speedFactor="0.90" vaporized=""/>
    <tripinfo id="flow_ew.12" depart="74.00" departLane="east_to_center_0" departPos="5.10" departSpeed="0.00" departDelay="2.00" arrival="110.00" arrivalLane="center_to_west_0" arrivalPos="50.00" arrivalSpeed="11.01" duration="36.00" routeLength="94.90" waitingTime="19.00" waitingCount="1" stopTime="0.00" timeLoss="27.14" rerouteNo="0" devices="tripinfo_flow_ew.12" vType="car" speedFactor="0.85" vaporized=""/>
    <tripinfo id="flow_sn.12" depart="72.00" departLane="south_to_center_0" departPos="5.10" departSpeed="0.00" departDelay="0.00" arrival="110.00" arrivalLane="center_to_north_0" arrivalPos="50.00" arrivalSpeed="15.60" duration="38.00" routeLength="94.90" waitingTime="21.00" waitingCount="1" stopTime="0.00" timeLoss="31.41" rerouteNo="0" devices="tripinfo_flow_sn.12" vType="car" speedFactor="1.17" vaporized=""/>
    <tripinfo id="flow_ew.13" depart="87.00" departLane="east_to_center_0" departPos="5.10" departSpeed="0.00" departDelay="9.00" arrival="112.00" arrivalLane="center_to_west_0" arrivalPos="50.00" arrivalSpeed="15.19" duration="25.00" routeLength="94.90" waitingTime="8.00" waitingCount="1" stopTime="0.00" timeLoss="17.83" rerouteNo="0" devices="tripinfo_flow_ew.13" vType="car" speedFactor="1.10" vaporized=""/>
    <tripinfo id="flow_sn.13" depart="83.00" departLane="south_to_center_0" departPos="5.10" departSpeed="0.00" departDelay="5.00" arrival="112.00" arrivalLane="center_to_north_0" arrivalPos="50.00" arrivalSpeed="13.15" duration="29.00" routeLength="94.90" waitingTime="13.00" waitingCount="1" stopTime="0.00" timeLoss="22.05" rerouteNo="0" devices="tripinfo_flow_sn.13" vType="car" speedFactor="1.00" vaporized=""/>
    <tripinfo id="flow_ew.14" depart="92.00" departLane="east_to_center_0" departPos="5.10" departSpeed="0.00" departDelay="8.00" arrival="113.00" arrivalLane="center_to_west_0" arrivalPos="50.00" arrivalSpeed="15.09" duration="21.00" routeLength="94.90" waitingTime="5.00" waitingCount="1" stopTime="0.00" timeLoss="14.88" rerouteNo="0" devices="tripinfo_flow_ew.14" vType="car" speedFactor="1.14" vaporized=""/>
    <tripinfo id="flow_ew.15" depart="96.00" departLane="east_to_center_0" departPos="5.10" departSpeed="0.00" departDelay="6.00" arrival="115.00" arrivalLane="center_to_west_0" arrivalPos="50.00" arrivalSpeed="14.95" duration="19.00" routeLength="94.90" waitingTime="3.00" waitingCount="1" stopTime="0.00" timeLoss="12.50" rerouteNo="0" devices="tripinfo_flow_ew.15" vType="car" speedFactor="1.12" vaporized=""/>
    <tripinfo id="flow_sn.14" depart="87.00" departLane="south_to_center_0" departPos="5.10" departSpeed="0.00" departDelay="3.00" arrival="116.00" arrivalLane="center_to_north_0" arrivalPos="50.00" arrivalSpeed="12.90" duration="29.00" routeLength="94.90" waitingTime="10.00" waitingCount="1" stopTime="0.00" timeLoss="21.30" rerouteNo="0" devices="tripinfo_flow_sn.14" vType="car" speedFactor="0.97" vaporized=""/>
    <tripinfo id="flow_ew.16" depart="105.00" departLane="east_to_center_0" departPos="5.10" departSpeed="0.00" departDelay="9.00" arrival="118.00" arrivalLane="center_to_west_0" arrivalPos="50.00" arrivalSpeed="11.69" duration="13.00" routeLength="94.90" waitingTime="0.00" waitingCount="0" stopTime="0.00" timeLoss="4.68" rerouteNo="0" devices="tripinfo_flow_ew.16" vType="car" speedFactor="0.88" vaporized=""/>
    <tripinfo id="flow_sn.15" depart="90.00" departLane="south_to_center_0" departPos="5.10" departSpeed="0.00" departDelay="0.00" arrival="119.00" arrivalLane="center_to_north_0" arrivalPos="50.00" arrivalSpeed="13.34" duration="29.00" routeLength="94.90" waitingTime="10.00" waitingCount="1" stopTime="0.00" timeLoss="21.29" rerouteNo="0" devices="tripinfo_flow_sn.15" vType="car" speedFactor="0.99" vaporized=""/>
    <tripinfo id="flow_ew.17" depart="109.00" departLane="east_to_center_0" departPos="5.10" departSpeed="0.00" departDelay="7.00" arrival="120.00" arrivalLane="center_to_west_0" arrivalPos="50.00" arrivalSpeed="13.51" duration="11.00" routeLength="94.90" waitingTime="0.00" waitingCount="0" stopTime="0.00" timeLoss="3.50" rerouteNo="0" devices="tripinfo_flow_ew.17" vType="car" speedFactor="1.02" vaporized=""/>
    <tripinfo id="flow_sn.16" depart="106.00" departLane="south_to_center_0" departPos="5.10" departSpeed="0.00" departDelay="10.00" arrival="121.00" arrivalLane="center_to_north_0" arrivalPos="50.00" arrivalSpeed="11.99" duration="15.00" routeLength="94.90" waitingTime="0.00" waitingCount="0" stopTime="0.00" timeLoss="6.66" rerouteNo="0" devices="tripinfo_flow_sn.16" vType="car" speedFactor="0.91" vaporized=""/>
    <tripinfo id="flow_ew.18" depart="112.00" departLane="east_to_center_0" departPos="5.10" departSpeed="0.00" departDelay="4.00" arrival="122.00" arrivalLane="center_to_west_0" arrivalPos="50.00" arrivalSpeed="14.37" duration="10.00" routeLength="94.90" waitingTime="0.00" waitingCount="0" stopTime="0.00" timeLoss="3.34" rerouteNo="0" devices="tripinfo_flow_ew.18" vType="car" speedFactor="1.06" vaporized=""/>
    <tripinfo id="flow_sn.17" depart="109.00" departLane="south_to_center_0" departPos="5.10" departSpeed="0.00" departDelay="7.00" arrival="124.00" arrivalLane="center_to_north_0" arrivalPos="50.00" arrivalSpeed="12.68" duration="15.00" routeLength="94.90" waitingTime="0.00" waitingCount="0" stopTime="0.00" timeLoss="7.45" rerouteNo="0" devices="tripinfo_flow_sn.17" vType="car" speedFactor="0.97" vaporized=""/>
    <tripinfo id="flow_ew.19" depart="115.00" departLane="east_to_center_0" departPos="5.10" departSpeed="0.00" departDelay="1.00" arrival="126.00" arrivalLane="center_to_west_0" arrivalPos="50.00" arrivalSpeed="13.24" duration="11.00" routeLength="94.90" waitingTime="0.00" waitingCount="0" stopTime="0.00" timeLoss="3.56" rerouteNo="0" devices="tripinfo_flow_ew.19" vType="car" speedFactor="0.98" vaporized=""/>
    <tripinfo id="flow_sn.18" depart="112.00" departLane="south_to_center_0" departPos="5.10" departSpeed="0.00" departDelay="4.00" arrival="127.00" arrivalLane="center_to_north_0" arrivalPos="50.00" arrivalSpeed="12.60" duration="15.00" routeLength="94.90" waitingTime="0.00" waitingCount="0" stopTime="0.00" timeLoss="7.66" rerouteNo="0" devices="tripinfo_flow_sn.18" vType="car" speedFactor="0.98" vaporized=""/>
    <tripinfo id="flow_sn.19" depart="115.00" departLane="south_to_center_0" departPos="5.10" departSpeed="0.00" departDelay="1.00" arrival="129.00" arrivalLane="center_to_north_0" arrivalPos="50.00" arrivalSpeed="14.28" duration="14.00" routeLength="94.90" waitingTime="0.00" waitingCount="0" stopTime="0.00" timeLoss="7.65" rerouteNo="0" devices="tripinfo_flow_sn.19" vType="car" speedFactor="1.09" vaporized=""/>